/*--------------------------------*- C++ -*----------------------------------*\
  =========                 |
  \\      /  F ield         | OpenFOAM: The Open Source CFD Toolbox
   \\    /   O peration     | Website:  https://openfoam.org
    \\  /    A nd           | Version:  6
     \\/     M anipulation  |
\*---------------------------------------------------------------------------*/
FoamFile
{
    version     2.0;
    format      ascii;
    class       volScalarField;
    location    "20";
    object      T;
}
// * * * * * * * * * * * * * * * * * * * * * * * * * * * * * * * * * * * * * //

dimensions      [0 0 0 1 0 0 0];

internalField   nonuniform List<scalar> 
16128
(
4.595
4.587
4.572
4.551
4.524
4.49
4.451
4.407
4.357
4.303
4.244
4.181
4.115
4.046
3.974
3.901
3.826
3.75
3.673
3.597
3.521
3.446
3.373
3.301
3.232
3.165
3.102
3.042
2.985
2.932
2.884
2.839
4.595
4.587
4.572
4.551
4.524
4.491
4.452
4.408
4.358
4.304
4.246
4.183
4.117
4.049
3.977
3.904
3.829
3.754
3.677
3.601
3.526
3.451
3.378
3.307
3.238
3.171
3.108
3.048
2.992
2.939
2.891
2.846
4.596
4.588
4.573
4.552
4.525
4.493
4.454
4.41
4.361
4.307
4.249
4.187
4.122
4.054
3.983
3.91
3.836
3.761
3.686
3.61
3.535
3.461
3.388
3.318
3.249
3.183
3.12
3.061
3.005
2.953
2.905
2.861
4.597
4.589
4.575
4.554
4.527
4.495
4.457
4.413
4.365
4.312
4.254
4.193
4.129
4.061
3.992
3.92
3.846
3.772
3.698
3.623
3.549
3.476
3.404
3.334
3.266
3.201
3.139
3.08
3.025
2.973
2.925
2.882
4.539
4.53
4.515
4.493
4.465
4.43
4.39
4.344
4.292
4.236
4.175
4.11
4.042
3.971
3.897
3.821
3.744
3.666
3.588
3.509
3.432
3.355
3.28
3.208
3.137
3.07
3.005
2.944
2.887
2.834
2.785
2.74
4.539
4.531
4.516
4.494
4.466
4.431
4.391
4.345
4.294
4.238
4.177
4.113
4.045
3.973
3.9
3.825
3.748
3.67
3.592
3.514
3.437
3.361
3.286
3.213
3.143
3.076
3.012
2.951
2.894
2.841
2.792
2.747
4.54
4.532
4.517
4.495
4.467
4.433
4.393
4.347
4.296
4.241
4.181
4.117
4.049
3.979
3.906
3.831
3.755
3.678
3.6
3.523
3.446
3.371
3.297
3.225
3.155
3.088
3.024
2.964
2.907
2.855
2.806
2.762
4.541
4.533
4.518
4.497
4.469
4.435
4.396
4.351
4.301
4.246
4.186
4.123
4.057
3.987
3.915
3.841
3.766
3.69
3.613
3.537
3.461
3.386
3.313
3.242
3.173
3.107
3.044
2.984
2.928
2.876
2.827
2.784
4.484
4.475
4.459
4.437
4.407
4.371
4.329
4.281
4.228
4.17
4.107
4.04
3.969
3.896
3.82
3.742
3.662
3.582
3.502
3.422
3.342
3.264
3.188
3.114
3.042
2.973
2.908
2.846
2.788
2.734
2.685
2.64
4.484
4.476
4.46
4.437
4.408
4.372
4.33
4.283
4.23
4.172
4.109
4.042
3.972
3.899
3.823
3.745
3.666
3.586
3.506
3.426
3.347
3.27
3.194
3.12
3.048
2.98
2.915
2.853
2.795
2.742
2.692
2.647
4.485
4.476
4.461
4.438
4.409
4.374
4.333
4.285
4.233
4.175
4.113
4.047
3.977
3.904
3.829
3.752
3.674
3.595
3.515
3.436
3.357
3.28
3.205
3.131
3.061
2.993
2.928
2.867
2.809
2.756
2.707
2.663
4.486
4.478
4.462
4.44
4.412
4.377
4.336
4.289
4.237
4.18
4.119
4.054
3.985
3.913
3.839
3.763
3.685
3.607
3.528
3.45
3.372
3.296
3.221
3.149
3.079
3.012
2.948
2.887
2.83
2.778
2.729
2.685
4.43
4.421
4.404
4.381
4.35
4.313
4.27
4.22
4.165
4.104
4.039
3.97
3.897
3.821
3.743
3.662
3.581
3.499
3.416
3.334
3.253
3.173
3.095
3.019
2.946
2.877
2.81
2.748
2.689
2.635
2.585
2.539
4.43
4.421
4.405
4.382
4.351
4.314
4.271
4.221
4.166
4.106
4.041
3.972
3.9
3.824
3.746
3.666
3.585
3.503
3.421
3.339
3.258
3.178
3.101
3.025
2.953
2.883
2.817
2.755
2.696
2.642
2.592
2.547
4.431
4.422
4.406
4.383
4.353
4.316
4.273
4.224
4.17
4.11
4.046
3.977
3.905
3.83
3.753
3.673
3.593
3.511
3.43
3.349
3.268
3.189
3.112
3.038
2.965
2.896
2.831
2.769
2.711
2.657
2.607
2.562
4.432
4.424
4.408
4.385
4.355
4.319
4.276
4.228
4.174
4.115
4.052
3.984
3.913
3.839
3.763
3.684
3.605
3.524
3.444
3.363
3.284
3.206
3.13
3.056
2.984
2.916
2.851
2.79
2.732
2.679
2.63
2.586
4.377
4.368
4.351
4.326
4.295
4.256
4.211
4.159
4.102
4.04
3.972
3.901
3.825
3.747
3.666
3.583
3.499
3.415
3.33
3.246
3.163
3.081
3.002
2.924
2.85
2.779
2.712
2.649
2.589
2.534
2.484
2.438
4.377
4.368
4.351
4.327
4.296
4.257
4.212
4.161
4.104
4.042
3.975
3.903
3.828
3.75
3.67
3.587
3.503
3.419
3.335
3.251
3.168
3.087
3.008
2.931
2.857
2.786
2.719
2.656
2.597
2.542
2.492
2.446
4.378
4.369
4.353
4.328
4.297
4.259
4.215
4.164
4.107
4.045
3.979
3.908
3.834
3.756
3.677
3.595
3.512
3.428
3.344
3.261
3.179
3.098
3.02
2.943
2.87
2.8
2.733
2.67
2.612
2.557
2.507
2.462
4.38
4.371
4.354
4.33
4.3
4.262
4.218
4.168
4.112
4.051
3.985
3.916
3.842
3.766
3.687
3.606
3.524
3.442
3.359
3.277
3.195
3.116
3.038
2.962
2.89
2.82
2.754
2.692
2.634
2.58
2.53
2.486
4.325
4.315
4.298
4.273
4.24
4.2
4.153
4.1
4.04
3.975
3.906
3.832
3.754
3.673
3.589
3.504
3.418
3.331
3.244
3.158
3.072
2.989
2.908
2.829
2.754
2.682
2.613
2.549
2.489
2.433
2.382
2.336
4.325
4.316
4.299
4.273
4.241
4.201
4.154
4.101
4.042
3.978
3.908
3.834
3.757
3.676
3.593
3.508
3.422
3.336
3.249
3.163
3.078
2.995
2.914
2.836
2.761
2.689
2.621
2.556
2.497
2.441
2.39
2.344
4.327
4.317
4.3
4.275
4.243
4.203
4.157
4.104
4.046
3.982
3.913
3.84
3.763
3.683
3.6
3.516
3.431
3.345
3.259
3.174
3.089
3.007
2.927
2.849
2.774
2.703
2.635
2.571
2.512
2.457
2.406
2.361
4.328
4.319
4.302
4.277
4.245
4.206
4.161
4.109
4.051
3.988
3.92
3.847
3.771
3.693
3.611
3.528
3.444
3.359
3.274
3.19
3.106
3.025
2.945
2.869
2.795
2.724
2.657
2.594
2.535
2.48
2.43
2.385
4.274
4.264
4.246
4.22
4.186
4.145
4.096
4.041
3.979
3.912
3.84
3.763
3.683
3.599
3.513
3.425
3.336
3.247
3.158
3.069
2.982
2.897
2.814
2.734
2.657
2.584
2.514
2.449
2.388
2.332
2.28
2.234
4.275
4.265
4.247
4.221
4.187
4.146
4.097
4.042
3.981
3.914
3.842
3.766
3.686
3.603
3.517
3.429
3.341
3.252
3.163
3.075
2.988
2.903
2.82
2.741
2.664
2.591
2.522
2.457
2.396
2.34
2.289
2.242
4.276
4.266
4.248
4.222
4.189
4.148
4.1
4.045
3.985
3.918
3.847
3.771
3.692
3.609
3.524
3.438
3.35
3.262
3.173
3.086
3
2.915
2.833
2.754
2.678
2.605
2.537
2.472
2.412
2.356
2.305
2.259
4.277
4.268
4.25
4.225
4.192
4.151
4.104
4.05
3.99
3.925
3.854
3.78
3.701
3.62
3.536
3.45
3.363
3.276
3.189
3.102
3.017
2.934
2.853
2.774
2.699
2.627
2.559
2.495
2.436
2.38
2.33
2.284
4.224
4.214
4.196
4.168
4.133
4.09
4.04
3.982
3.918
3.849
3.774
3.695
3.612
3.525
3.437
3.346
3.255
3.163
3.071
2.981
2.891
2.804
2.719
2.638
2.56
2.485
2.415
2.348
2.287
2.23
2.178
2.131
4.225
4.215
4.196
4.169
4.134
4.091
4.041
3.984
3.92
3.851
3.777
3.698
3.615
3.529
3.441
3.351
3.26
3.168
3.077
2.986
2.897
2.811
2.726
2.645
2.567
2.493
2.422
2.356
2.295
2.238
2.187
2.14
4.226
4.216
4.198
4.171
4.136
4.094
4.044
3.987
3.924
3.856
3.782
3.704
3.622
3.536
3.449
3.359
3.269
3.178
3.088
2.998
2.91
2.824
2.74
2.659
2.581
2.508
2.438
2.372
2.311
2.255
2.204
2.157
4.228
4.218
4.2
4.173
4.139
4.097
4.048
3.992
3.93
3.862
3.79
3.712
3.631
3.547
3.461
3.372
3.283
3.193
3.104
3.015
2.928
2.843
2.76
2.68
2.603
2.53
2.461
2.396
2.336
2.28
2.229
2.183
4.176
4.165
4.146
4.118
4.081
4.036
3.984
3.925
3.859
3.787
3.709
3.627
3.541
3.452
3.361
3.268
3.173
3.079
2.985
2.892
2.8
2.711
2.625
2.542
2.462
2.386
2.315
2.248
2.186
2.128
2.076
2.028
4.176
4.166
4.147
4.119
4.082
4.038
3.986
3.926
3.861
3.789
3.712
3.63
3.545
3.456
3.365
3.272
3.178
3.084
2.991
2.898
2.807
2.718
2.632
2.549
2.47
2.394
2.323
2.256
2.194
2.137
2.084
2.037
4.178
4.167
4.148
4.121
4.084
4.04
3.989
3.93
3.865
3.794
3.717
3.636
3.552
3.464
3.373
3.281
3.188
3.095
3.002
2.91
2.82
2.731
2.646
2.564
2.485
2.41
2.339
2.272
2.211
2.154
2.102
2.055
4.18
4.169
4.151
4.123
4.088
4.044
3.993
3.935
3.871
3.801
3.725
3.645
3.562
3.475
3.386
3.295
3.203
3.111
3.019
2.928
2.839
2.751
2.667
2.585
2.507
2.433
2.363
2.297
2.236
2.179
2.128
2.081
4.128
4.117
4.097
4.068
4.03
3.984
3.93
3.868
3.799
3.725
3.645
3.56
3.471
3.379
3.285
3.189
3.092
2.995
2.898
2.803
2.709
2.618
2.53
2.445
2.364
2.287
2.215
2.147
2.084
2.026
1.973
1.925
4.129
4.118
4.098
4.069
4.031
3.985
3.931
3.87
3.802
3.727
3.648
3.563
3.475
3.383
3.289
3.194
3.097
3
2.904
2.809
2.716
2.625
2.537
2.453
2.372
2.295
2.223
2.155
2.093
2.035
1.982
1.934
4.13
4.12
4.1
4.071
4.034
3.988
3.934
3.874
3.806
3.732
3.653
3.57
3.482
3.391
3.298
3.203
3.107
3.011
2.916
2.822
2.729
2.639
2.552
2.468
2.388
2.311
2.239
2.172
2.11
2.052
2
1.953
4.132
4.122
4.102
4.074
4.037
3.992
3.939
3.879
3.812
3.74
3.662
3.579
3.493
3.403
3.311
3.217
3.123
3.028
2.934
2.84
2.749
2.66
2.573
2.49
2.411
2.335
2.264
2.197
2.135
2.078
2.026
1.979
4.082
4.071
4.05
4.02
3.98
3.932
3.876
3.812
3.741
3.664
3.581
3.493
3.401
3.307
3.209
3.11
3.011
2.911
2.812
2.714
2.618
2.525
2.435
2.349
2.266
2.188
2.115
2.046
1.982
1.924
1.87
1.822
4.082
4.071
4.051
4.021
3.981
3.934
3.878
3.814
3.743
3.666
3.584
3.497
3.405
3.311
3.214
3.115
3.016
2.917
2.818
2.721
2.625
2.532
2.443
2.357
2.274
2.196
2.123
2.054
1.991
1.933
1.88
1.832
4.084
4.073
4.052
4.023
3.984
3.936
3.881
3.818
3.748
3.672
3.59
3.503
3.413
3.319
3.223
3.125
3.027
2.928
2.83
2.734
2.639
2.547
2.458
2.372
2.29
2.213
2.14
2.072
2.009
1.951
1.898
1.85
4.086
4.075
4.055
4.026
3.987
3.941
3.886
3.824
3.755
3.679
3.599
3.513
3.424
3.331
3.236
3.14
3.043
2.945
2.848
2.753
2.659
2.568
2.48
2.395
2.314
2.238
2.165
2.098
2.035
1.977
1.925
1.878
4.036
4.025
4.003
3.972
3.931
3.881
3.823
3.757
3.683
3.603
3.518
3.427
3.332
3.234
3.134
3.032
2.929
2.827
2.725
2.625
2.527
2.432
2.34
2.252
2.168
2.089
2.014
1.945
1.88
1.821
1.768
1.72
4.037
4.026
4.004
3.973
3.932
3.883
3.825
3.759
3.686
3.606
3.521
3.43
3.336
3.239
3.139
3.037
2.935
2.833
2.732
2.632
2.534
2.439
2.348
2.26
2.176
2.097
2.023
1.954
1.89
1.831
1.777
1.729
4.039
4.027
4.006
3.975
3.935
3.886
3.828
3.763
3.69
3.612
3.527
3.437
3.344
3.247
3.148
3.048
2.946
2.845
2.744
2.645
2.548
2.454
2.363
2.276
2.193
2.114
2.04
1.971
1.908
1.849
1.796
1.748
4.041
4.03
4.009
3.978
3.939
3.89
3.833
3.769
3.697
3.62
3.536
3.448
3.356
3.26
3.162
3.063
2.963
2.863
2.763
2.665
2.57
2.476
2.386
2.3
2.218
2.14
2.066
1.998
1.935
1.877
1.824
1.776
3.992
3.98
3.958
3.925
3.883
3.832
3.771
3.702
3.626
3.544
3.455
3.361
3.263
3.162
3.059
2.954
2.848
2.743
2.639
2.536
2.436
2.339
2.245
2.155
2.07
1.99
1.914
1.844
1.779
1.72
1.666
1.617
3.993
3.981
3.959
3.927
3.885
3.833
3.773
3.705
3.629
3.546
3.458
3.365
3.267
3.167
3.064
2.959
2.854
2.749
2.646
2.543
2.443
2.347
2.253
2.164
2.079
1.998
1.923
1.853
1.788
1.729
1.675
1.627
3.995
3.983
3.961
3.929
3.887
3.836
3.777
3.709
3.634
3.552
3.465
3.372
3.276
3.176
3.074
2.97
2.866
2.762
2.659
2.557
2.458
2.362
2.269
2.18
2.096
2.016
1.941
1.871
1.807
1.748
1.694
1.646
3.997
3.986
3.964
3.932
3.891
3.841
3.782
3.715
3.641
3.561
3.474
3.383
3.288
3.189
3.088
2.986
2.883
2.78
2.678
2.578
2.48
2.385
2.293
2.205
2.121
2.042
1.968
1.898
1.834
1.776
1.723
1.675
3.949
3.937
3.914
3.88
3.836
3.783
3.72
3.649
3.57
3.484
3.393
3.296
3.195
3.091
2.984
2.876
2.768
2.66
2.553
2.447
2.345
2.246
2.15
2.059
1.972
1.891
1.814
1.743
1.678
1.618
1.564
1.516
3.95
3.938
3.915
3.881
3.838
3.784
3.722
3.651
3.573
3.488
3.396
3.3
3.199
3.095
2.989
2.882
2.774
2.666
2.559
2.455
2.353
2.254
2.158
2.067
1.981
1.9
1.823
1.753
1.687
1.628
1.574
1.525
3.952
3.94
3.917
3.884
3.841
3.788
3.726
3.656
3.578
3.494
3.403
3.308
3.208
3.105
3
2.893
2.786
2.679
2.573
2.469
2.368
2.269
2.175
2.084
1.999
1.918
1.842
1.771
1.706
1.647
1.593
1.545
3.954
3.942
3.92
3.887
3.845
3.793
3.732
3.662
3.586
3.502
3.413
3.319
3.22
3.119
3.015
2.91
2.804
2.698
2.594
2.491
2.39
2.293
2.199
2.11
2.025
1.944
1.869
1.799
1.734
1.675
1.622
1.574
3.907
3.894
3.871
3.836
3.79
3.735
3.67
3.596
3.515
3.426
3.331
3.231
3.127
3.02
2.91
2.799
2.687
2.576
2.467
2.359
2.254
2.153
2.055
1.963
1.875
1.792
1.715
1.643
1.577
1.517
1.463
1.415
3.908
3.895
3.872
3.837
3.792
3.737
3.672
3.599
3.518
3.429
3.335
3.235
3.132
3.025
2.915
2.805
2.694
2.583
2.474
2.366
2.262
2.161
2.064
1.971
1.884
1.801
1.724
1.653
1.587
1.527
1.473
1.424
3.91
3.897
3.874
3.84
3.795
3.74
3.676
3.604
3.523
3.436
3.342
3.243
3.141
3.034
2.926
2.816
2.706
2.596
2.488
2.381
2.278
2.177
2.081
1.989
1.902
1.82
1.743
1.672
1.606
1.546
1.492
1.444
3.912
3.9
3.877
3.843
3.799
3.745
3.682
3.61
3.531
3.445
3.353
3.255
3.154
3.049
2.942
2.834
2.725
2.616
2.509
2.404
2.301
2.202
2.106
2.015
1.928
1.847
1.771
1.7
1.635
1.576
1.522
1.474
3.866
3.853
3.829
3.792
3.745
3.688
3.621
3.545
3.46
3.369
3.271
3.168
3.06
2.949
2.836
2.722
2.607
2.493
2.381
2.271
2.164
2.06
1.961
1.867
1.777
1.694
1.616
1.544
1.477
1.417
1.363
1.315
3.867
3.854
3.83
3.794
3.747
3.69
3.623
3.547
3.463
3.372
3.275
3.172
3.065
2.954
2.842
2.728
2.614
2.5
2.388
2.278
2.172
2.069
1.97
1.876
1.787
1.703
1.625
1.553
1.487
1.427
1.373
1.325
3.869
3.856
3.832
3.797
3.75
3.694
3.627
3.552
3.469
3.379
3.282
3.18
3.074
2.965
2.853
2.74
2.627
2.514
2.403
2.294
2.188
2.085
1.987
1.894
1.805
1.722
1.644
1.573
1.507
1.447
1.393
1.345
3.872
3.859
3.836
3.8
3.755
3.699
3.634
3.56
3.477
3.388
3.293
3.192
3.088
2.98
2.869
2.758
2.646
2.535
2.425
2.317
2.212
2.111
2.013
1.92
1.833
1.75
1.673
1.602
1.536
1.476
1.422
1.374
3.826
3.813
3.788
3.75
3.702
3.642
3.573
3.494
3.407
3.312
3.211
3.104
2.993
2.879
2.763
2.645
2.528
2.411
2.295
2.183
2.073
1.968
1.867
1.771
1.681
1.596
1.518
1.445
1.378
1.318
1.264
1.216
3.828
3.814
3.789
3.752
3.703
3.644
3.575
3.497
3.41
3.316
3.215
3.109
2.998
2.885
2.769
2.652
2.534
2.418
2.303
2.191
2.082
1.977
1.876
1.781
1.69
1.606
1.527
1.455
1.388
1.328
1.274
1.226
3.83
3.817
3.791
3.755
3.707
3.648
3.58
3.502
3.416
3.322
3.223
3.117
3.008
2.895
2.78
2.664
2.548
2.432
2.318
2.207
2.099
1.994
1.894
1.799
1.709
1.625
1.547
1.475
1.408
1.348
1.294
1.246
3.833
3.82
3.795
3.759
3.711
3.654
3.586
3.51
3.425
3.333
3.234
3.13
3.022
2.911
2.798
2.683
2.568
2.454
2.341
2.231
2.123
2.02
1.921
1.827
1.737
1.654
1.576
1.504
1.438
1.378
1.324
1.276
3.788
3.774
3.748
3.71
3.659
3.598
3.526
3.444
3.354
3.256
3.152
3.042
2.928
2.81
2.69
2.569
2.449
2.329
2.211
2.096
1.984
1.877
1.774
1.677
1.585
1.5
1.42
1.347
1.281
1.221
1.167
1.119
3.789
3.776
3.749
3.711
3.661
3.6
3.528
3.447
3.357
3.26
3.156
3.047
2.933
2.816
2.696
2.576
2.456
2.336
2.219
2.104
1.993
1.885
1.783
1.686
1.595
1.509
1.43
1.357
1.291
1.231
1.177
1.129
3.792
3.778
3.752
3.714
3.664
3.604
3.533
3.453
3.364
3.267
3.164
3.056
2.943
2.827
2.708
2.589
2.47
2.351
2.234
2.12
2.01
1.903
1.802
1.705
1.614
1.529
1.45
1.377
1.311
1.251
1.197
1.149
3.795
3.781
3.756
3.718
3.669
3.61
3.54
3.461
3.373
3.278
3.176
3.069
2.958
2.843
2.726
2.608
2.49
2.373
2.258
2.145
2.035
1.93
1.829
1.733
1.643
1.558
1.48
1.407
1.341
1.281
1.227
1.18
3.751
3.737
3.71
3.67
3.618
3.554
3.48
3.396
3.303
3.202
3.094
2.981
2.863
2.742
2.618
2.494
2.37
2.247
2.127
2.009
1.895
1.786
1.682
1.583
1.49
1.404
1.324
1.251
1.185
1.125
1.071
1.024
3.752
3.738
3.711
3.671
3.62
3.556
3.482
3.399
3.306
3.205
3.098
2.985
2.868
2.747
2.625
2.501
2.378
2.255
2.135
2.018
1.904
1.795
1.691
1.593
1.5
1.414
1.334
1.261
1.195
1.135
1.082
1.034
3.755
3.741
3.714
3.675
3.623
3.561
3.487
3.404
3.313
3.213
3.107
2.995
2.878
2.759
2.637
2.515
2.392
2.271
2.151
2.035
1.922
1.813
1.71
1.612
1.52
1.434
1.355
1.282
1.215
1.155
1.102
1.054
3.758
3.744
3.718
3.679
3.629
3.567
3.495
3.413
3.322
3.224
3.119
3.009
2.894
2.776
2.656
2.535
2.414
2.293
2.175
2.06
1.948
1.841
1.738
1.641
1.549
1.464
1.385
1.312
1.246
1.186
1.132
1.085
3.715
3.701
3.673
3.631
3.578
3.512
3.435
3.348
3.252
3.148
3.037
2.92
2.799
2.674
2.548
2.42
2.293
2.167
2.044
1.923
1.807
1.696
1.59
1.49
1.397
1.31
1.23
1.157
1.091
1.031
0.9782
0.9317
3.716
3.702
3.674
3.633
3.58
3.514
3.438
3.351
3.256
3.152
3.041
2.925
2.804
2.68
2.554
2.427
2.3
2.175
2.052
1.932
1.816
1.705
1.6
1.5
1.407
1.32
1.24
1.167
1.101
1.041
0.9883
0.9417
3.719
3.705
3.677
3.636
3.583
3.519
3.443
3.357
3.262
3.16
3.05
2.935
2.815
2.692
2.567
2.441
2.315
2.191
2.069
1.95
1.835
1.724
1.619
1.52
1.427
1.34
1.261
1.187
1.121
1.062
1.008
0.9617
3.722
3.708
3.681
3.641
3.589
3.525
3.45
3.366
3.273
3.171
3.063
2.949
2.831
2.71
2.586
2.462
2.338
2.215
2.094
1.976
1.862
1.752
1.648
1.549
1.457
1.371
1.291
1.218
1.152
1.092
1.039
0.9919
3.681
3.666
3.637
3.594
3.539
3.471
3.392
3.302
3.203
3.096
2.981
2.861
2.736
2.608
2.478
3.682
3.667
3.638
3.596
3.541
3.473
3.395
3.305
3.207
3.1
2.986
2.866
2.742
2.614
3.685
3.67
3.641
3.6
3.545
3.478
3.4
3.311
3.214
3.108
2.995
2.876
2.753
3.688
3.674
3.646
3.604
3.551
3.485
3.408
3.32
3.224
3.12
3.008
2.891
4.598
4.59
4.576
4.556
4.53
4.498
4.46
4.417
4.37
4.318
4.261
4.201
4.138
4.071
4.003
3.932
3.86
3.787
3.714
3.64
3.567
3.495
3.424
3.355
3.289
3.225
3.163
3.105
3.051
3
2.953
2.91
4.599
4.591
4.578
4.558
4.532
4.501
4.464
4.422
4.376
4.325
4.27
4.211
4.149
4.084
4.016
3.947
3.877
3.805
3.733
3.661
3.59
3.519
3.45
3.382
3.317
3.254
3.193
3.136
3.083
3.033
2.987
2.944
4.6
4.593
4.579
4.56
4.535
4.504
4.468
4.428
4.382
4.333
4.279
4.222
4.161
4.098
4.032
3.965
3.896
3.826
3.756
3.686
3.616
3.547
3.479
3.413
3.349
3.288
3.229
3.173
3.121
3.072
3.027
2.986
4.601
4.593
4.58
4.561
4.537
4.508
4.473
4.434
4.39
4.341
4.289
4.234
4.175
4.114
4.05
3.985
3.918
3.85
3.782
3.714
3.646
3.579
3.513
3.449
3.387
3.327
3.27
3.216
3.164
3.117
3.073
3.033
4.601
4.593
4.581
4.563
4.539
4.511
4.477
4.439
4.397
4.351
4.3
4.247
4.19
4.131
4.07
4.007
3.942
3.877
3.811
3.745
3.679
3.615
3.551
3.489
3.429
3.371
3.315
3.263
3.213
3.167
3.125
3.086
4.6
4.593
4.581
4.563
4.541
4.514
4.482
4.445
4.405
4.36
4.312
4.261
4.206
4.15
4.091
4.03
3.968
3.906
3.842
3.779
3.716
3.654
3.592
3.533
3.475
3.419
3.366
3.315
3.267
3.223
3.182
3.144
4.598
4.591
4.579
4.563
4.541
4.516
4.485
4.451
4.412
4.369
4.324
4.275
4.223
4.169
4.113
4.055
3.996
3.936
3.876
3.815
3.755
3.696
3.637
3.58
3.524
3.471
3.42
3.371
3.326
3.283
3.243
3.207
4.594
4.588
4.577
4.561
4.541
4.516
4.488
4.455
4.419
4.378
4.335
4.289
4.24
4.189
4.136
4.081
4.025
3.968
3.911
3.854
3.796
3.74
3.684
3.63
3.577
3.527
3.478
3.432
3.388
3.347
3.31
3.275
4.589
4.583
4.573
4.558
4.539
4.516
4.489
4.458
4.424
4.387
4.346
4.303
4.257
4.209
4.159
4.107
4.055
4.001
3.947
3.893
3.84
3.786
3.734
3.683
3.633
3.585
3.539
3.495
3.454
3.416
3.38
3.347
4.582
4.576
4.566
4.553
4.535
4.514
4.489
4.461
4.429
4.394
4.356
4.316
4.273
4.228
4.182
4.134
4.085
4.035
3.985
3.934
3.884
3.834
3.785
3.738
3.691
3.646
3.603
3.562
3.523
3.487
3.454
3.423
4.572
4.567
4.558
4.546
4.529
4.51
4.487
4.461
4.432
4.4
4.365
4.328
4.288
4.247
4.204
4.16
4.115
4.069
4.023
3.976
3.93
3.884
3.838
3.794
3.751
3.709
3.669
3.631
3.595
3.561
3.53
3.502
4.56
4.555
4.547
4.536
4.521
4.504
4.483
4.459
4.433
4.404
4.372
4.338
4.303
4.265
4.226
4.186
4.145
4.103
4.061
4.018
3.976
3.933
3.892
3.851
3.812
3.773
3.737
3.702
3.669
3.638
3.609
3.583
4.545
4.54
4.533
4.523
4.511
4.495
4.476
4.455
4.432
4.405
4.377
4.347
4.315
4.281
4.246
4.21
4.173
4.136
4.097
4.059
4.021
3.983
3.945
3.908
3.873
3.838
3.805
3.773
3.743
3.715
3.689
3.665
4.527
4.524
4.518
4.509
4.498
4.484
4.467
4.449
4.428
4.405
4.38
4.353
4.324
4.294
4.263
4.231
4.198
4.164
4.13
4.096
4.062
4.028
3.994
3.961
3.929
3.898
3.868
3.839
3.812
3.787
3.763
3.742
4.513
4.51
4.505
4.497
4.487
4.474
4.459
4.442
4.423
4.402
4.379
4.354
4.328
4.3
4.272
4.242
4.211
4.18
4.149
4.117
4.086
4.054
4.023
3.992
3.963
3.934
3.906
3.879
3.854
3.831
3.809
3.789
4.542
4.534
4.519
4.498
4.471
4.438
4.399
4.355
4.306
4.252
4.194
4.131
4.066
3.998
3.927
3.854
3.78
3.705
3.63
3.554
3.48
3.406
3.334
3.264
3.196
3.131
3.069
3.01
2.955
2.903
2.856
2.813
4.544
4.536
4.521
4.501
4.474
4.442
4.404
4.36
4.312
4.259
4.202
4.141
4.077
4.01
3.941
3.87
3.797
3.724
3.65
3.576
3.503
3.431
3.36
3.291
3.225
3.161
3.1
3.042
2.988
2.937
2.891
2.848
4.545
4.537
4.523
4.503
4.477
4.445
4.408
4.366
4.319
4.268
4.212
4.153
4.091
4.025
3.958
3.888
3.818
3.746
3.674
3.602
3.531
3.46
3.391
3.324
3.259
3.196
3.137
3.08
3.027
2.978
2.932
2.891
4.545
4.538
4.524
4.505
4.48
4.449
4.413
4.372
4.327
4.277
4.223
4.166
4.105
4.042
3.977
3.909
3.841
3.771
3.701
3.631
3.562
3.494
3.426
3.361
3.298
3.237
3.179
3.124
3.072
3.024
2.98
2.939
4.546
4.538
4.525
4.506
4.482
4.453
4.418
4.379
4.335
4.287
4.235
4.18
4.121
4.06
3.997
3.932
3.866
3.799
3.731
3.664
3.597
3.531
3.466
3.403
3.341
3.282
3.226
3.173
3.123
3.076
3.033
2.994
4.545
4.538
4.525
4.507
4.484
4.456
4.423
4.385
4.343
4.297
4.247
4.194
4.138
4.08
4.019
3.957
3.893
3.829
3.764
3.699
3.635
3.571
3.509
3.448
3.389
3.332
3.278
3.227
3.178
3.133
3.092
3.054
4.543
4.536
4.524
4.507
4.485
4.458
4.427
4.391
4.351
4.307
4.26
4.209
4.156
4.1
4.042
3.983
3.922
3.861
3.799
3.737
3.676
3.615
3.555
3.497
3.441
3.386
3.334
3.285
3.239
3.196
3.156
3.119
4.539
4.533
4.522
4.505
4.485
4.459
4.43
4.396
4.358
4.317
4.272
4.224
4.174
4.121
4.066
4.01
3.953
3.895
3.836
3.777
3.719
3.661
3.604
3.549
3.495
3.444
3.394
3.347
3.303
3.262
3.224
3.189
4.534
4.528
4.518
4.502
4.483
4.459
4.431
4.4
4.364
4.325
4.284
4.239
4.192
4.142
4.091
4.038
3.984
3.929
3.874
3.819
3.764
3.709
3.656
3.604
3.553
3.504
3.458
3.413
3.371
3.332
3.296
3.264
4.527
4.521
4.511
4.497
4.479
4.457
4.431
4.402
4.369
4.333
4.294
4.253
4.209
4.163
4.115
4.066
4.016
3.965
3.913
3.862
3.81
3.759
3.709
3.661
3.613
3.567
3.524
3.482
3.443
3.406
3.372
3.342
4.517
4.512
4.503
4.49
4.473
4.453
4.43
4.403
4.373
4.34
4.304
4.266
4.225
4.183
4.139
4.094
4.047
4
3.953
3.905
3.858
3.811
3.764
3.719
3.675
3.633
3.592
3.553
3.517
3.483
3.451
3.423
4.505
4.5
4.492
4.48
4.465
4.447
4.426
4.401
4.374
4.344
4.312
4.277
4.24
4.202
4.162
4.121
4.078
4.035
3.992
3.949
3.905
3.862
3.82
3.779
3.738
3.699
3.662
3.627
3.593
3.562
3.533
3.506
4.489
4.485
4.478
4.468
4.454
4.438
4.419
4.397
4.373
4.346
4.317
4.286
4.253
4.219
4.183
4.146
4.108
4.07
4.031
3.991
3.952
3.914
3.875
3.838
3.801
3.766
3.732
3.7
3.67
3.641
3.615
3.59
4.471
4.468
4.462
4.453
4.441
4.427
4.41
4.391
4.369
4.346
4.32
4.293
4.263
4.233
4.201
4.168
4.134
4.1
4.065
4.03
3.995
3.96
3.926
3.892
3.86
3.828
3.798
3.769
3.741
3.715
3.691
3.67
4.457
4.454
4.448
4.441
4.43
4.417
4.402
4.384
4.364
4.343
4.319
4.294
4.267
4.239
4.21
4.179
4.148
4.117
4.084
4.052
4.02
3.988
3.956
3.925
3.895
3.865
3.837
3.81
3.784
3.761
3.738
3.718
4.488
4.479
4.464
4.442
4.414
4.38
4.34
4.294
4.243
4.187
4.126
4.062
3.995
3.924
3.851
3.776
3.7
3.623
3.546
3.469
3.392
3.317
3.244
3.172
3.103
3.037
2.974
2.914
2.858
2.806
2.758
2.715
4.489
4.481
4.466
4.445
4.417
4.384
4.344
4.299
4.249
4.195
4.136
4.073
4.007
3.938
3.866
3.793
3.718
3.643
3.567
3.491
3.417
3.343
3.271
3.201
3.133
3.068
3.006
2.947
2.892
2.841
2.794
2.751
4.49
4.482
4.468
4.447
4.42
4.388
4.349
4.306
4.257
4.204
4.146
4.085
4.021
3.953
3.884
3.812
3.739
3.666
3.592
3.518
3.445
3.373
3.303
3.234
3.168
3.105
3.044
2.987
2.933
2.883
2.837
2.795
4.491
4.483
4.469
4.449
4.423
4.392
4.354
4.312
4.265
4.214
4.158
4.099
4.036
3.971
3.903
3.834
3.763
3.692
3.62
3.549
3.478
3.408
3.339
3.273
3.208
3.147
3.088
3.032
2.979
2.931
2.886
2.845
4.491
4.484
4.47
4.451
4.426
4.396
4.36
4.319
4.274
4.224
4.17
4.113
4.053
3.99
3.925
3.858
3.79
3.721
3.652
3.583
3.514
3.447
3.38
3.316
3.254
3.194
3.137
3.082
3.032
2.984
2.941
2.901
4.491
4.484
4.471
4.452
4.428
4.399
4.365
4.326
4.282
4.235
4.183
4.129
4.071
4.011
3.948
3.884
3.819
3.753
3.686
3.62
3.554
3.489
3.425
3.363
3.303
3.245
3.19
3.138
3.089
3.044
3.002
2.963
4.489
4.482
4.47
4.452
4.429
4.402
4.369
4.332
4.291
4.245
4.196
4.144
4.089
4.032
3.972
3.911
3.849
3.786
3.723
3.659
3.596
3.534
3.473
3.414
3.356
3.301
3.248
3.199
3.152
3.108
3.067
3.031
4.486
4.479
4.467
4.451
4.429
4.403
4.372
4.337
4.298
4.256
4.209
4.16
4.108
4.054
3.998
3.94
3.881
3.821
3.761
3.701
3.641
3.582
3.524
3.468
3.413
3.361
3.311
3.263
3.218
3.176
3.138
3.103
4.481
4.474
4.463
4.448
4.428
4.403
4.374
4.342
4.305
4.265
4.222
4.176
4.127
4.076
4.023
3.969
3.914
3.857
3.801
3.744
3.688
3.632
3.578
3.525
3.473
3.424
3.376
3.331
3.289
3.249
3.213
3.179
4.473
4.467
4.457
4.443
4.424
4.401
4.375
4.344
4.311
4.273
4.233
4.19
4.145
4.098
4.049
3.998
3.947
3.894
3.842
3.789
3.736
3.684
3.633
3.584
3.535
3.489
3.444
3.402
3.362
3.325
3.291
3.26
4.463
4.458
4.449
4.435
4.418
4.397
4.373
4.345
4.314
4.28
4.243
4.204
4.162
4.119
4.074
4.027
3.98
3.931
3.883
3.834
3.786
3.738
3.69
3.644
3.6
3.557
3.515
3.476
3.439
3.404
3.373
3.343
4.451
4.446
4.437
4.425
4.41
4.391
4.369
4.344
4.316
4.285
4.252
4.216
4.178
4.139
4.098
4.056
4.012
3.968
3.924
3.88
3.835
3.791
3.748
3.706
3.665
3.625
3.588
3.551
3.517
3.486
3.456
3.429
4.435
4.43
4.423
4.412
4.399
4.382
4.363
4.34
4.315
4.288
4.258
4.226
4.192
4.157
4.12
4.082
4.044
4.004
3.964
3.924
3.884
3.845
3.806
3.768
3.73
3.695
3.66
3.627
3.596
3.567
3.541
3.516
4.416
4.413
4.406
4.397
4.385
4.371
4.354
4.334
4.312
4.287
4.261
4.233
4.203
4.172
4.139
4.105
4.071
4.036
4
3.964
3.929
3.893
3.858
3.824
3.791
3.759
3.728
3.698
3.67
3.644
3.62
3.598
4.401
4.398
4.393
4.385
4.374
4.361
4.345
4.327
4.307
4.285
4.26
4.235
4.207
4.178
4.148
4.117
4.086
4.053
4.02
3.987
3.955
3.922
3.89
3.858
3.827
3.797
3.768
3.741
3.715
3.691
3.668
3.647
4.434
4.425
4.41
4.387
4.358
4.322
4.281
4.233
4.18
4.122
4.06
3.994
3.924
3.851
3.776
3.698
3.62
3.541
3.462
3.383
3.305
3.228
3.153
3.08
3.01
2.942
2.878
2.818
2.761
2.708
2.66
2.616
4.436
4.427
4.412
4.39
4.361
4.326
4.286
4.239
4.187
4.131
4.07
4.005
3.936
3.865
3.791
3.716
3.639
3.562
3.484
3.406
3.33
3.255
3.181
3.109
3.04
2.974
2.911
2.852
2.796
2.745
2.697
2.654
4.437
4.429
4.414
4.392
4.365
4.331
4.291
4.246
4.195
4.14
4.081
4.017
3.951
3.881
3.81
3.736
3.661
3.586
3.51
3.434
3.36
3.286
3.214
3.144
3.077
3.012
2.951
2.893
2.838
2.788
2.741
2.699
4.438
4.43
4.416
4.395
4.368
4.335
4.297
4.253
4.204
4.151
4.093
4.032
3.967
3.9
3.83
3.759
3.686
3.613
3.54
3.466
3.394
3.322
3.252
3.184
3.119
3.056
2.996
2.939
2.886
2.837
2.792
2.75
4.439
4.431
4.417
4.397
4.371
4.339
4.302
4.26
4.213
4.162
4.106
4.047
3.985
3.92
3.853
3.784
3.714
3.643
3.572
3.502
3.431
3.362
3.295
3.229
3.166
3.105
3.047
2.992
2.94
2.892
2.848
2.808
4.438
4.431
4.417
4.398
4.373
4.343
4.308
4.267
4.222
4.173
4.12
4.063
4.004
3.942
3.877
3.811
3.744
3.676
3.608
3.54
3.473
3.406
3.341
3.278
3.217
3.158
3.102
3.049
3
2.953
2.911
2.872
4.436
4.429
4.417
4.398
4.375
4.346
4.312
4.274
4.231
4.184
4.134
4.08
4.023
3.964
3.903
3.84
3.776
3.711
3.646
3.581
3.517
3.453
3.391
3.331
3.272
3.216
3.162
3.112
3.064
3.02
2.979
2.942
4.433
4.426
4.414
4.397
4.375
4.348
4.316
4.28
4.239
4.195
4.148
4.097
4.043
3.987
3.929
3.87
3.809
3.748
3.686
3.625
3.564
3.503
3.444
3.387
3.331
3.278
3.227
3.178
3.133
3.091
3.052
3.016
4.428
4.422
4.41
4.394
4.373
4.348
4.318
4.284
4.247
4.205
4.161
4.113
4.063
4.011
3.956
3.9
3.843
3.786
3.728
3.67
3.612
3.556
3.5
3.446
3.393
3.343
3.294
3.249
3.206
3.166
3.129
3.095
4.421
4.415
4.404
4.389
4.37
4.346
4.319
4.288
4.253
4.214
4.173
4.129
4.082
4.033
3.983
3.931
3.878
3.824
3.77
3.716
3.663
3.61
3.558
3.507
3.458
3.41
3.365
3.322
3.282
3.244
3.21
3.178
4.411
4.405
4.395
4.382
4.364
4.343
4.317
4.289
4.257
4.222
4.184
4.143
4.1
4.056
4.009
3.961
3.913
3.863
3.813
3.764
3.714
3.665
3.617
3.57
3.524
3.48
3.438
3.399
3.361
3.326
3.294
3.264
4.397
4.392
4.384
4.371
4.356
4.336
4.314
4.288
4.259
4.227
4.193
4.156
4.117
4.077
4.035
3.991
3.947
3.902
3.856
3.811
3.766
3.721
3.677
3.634
3.592
3.552
3.513
3.477
3.442
3.41
3.38
3.353
4.381
4.377
4.369
4.358
4.344
4.327
4.307
4.284
4.258
4.23
4.199
4.167
4.132
4.096
4.058
4.019
3.979
3.939
3.898
3.857
3.817
3.776
3.736
3.697
3.66
3.623
3.588
3.555
3.523
3.494
3.467
3.442
4.362
4.358
4.352
4.343
4.33
4.315
4.298
4.278
4.255
4.23
4.203
4.174
4.143
4.111
4.078
4.043
4.008
3.972
3.936
3.899
3.863
3.827
3.791
3.756
3.722
3.689
3.658
3.628
3.599
3.573
3.548
3.526
4.347
4.344
4.338
4.33
4.319
4.305
4.289
4.271
4.25
4.227
4.202
4.176
4.148
4.118
4.088
4.056
4.023
3.99
3.957
3.923
3.89
3.856
3.823
3.791
3.76
3.729
3.7
3.672
3.646
3.621
3.598
3.577
4.381
4.373
4.356
4.333
4.303
4.266
4.223
4.173
4.118
4.058
3.994
3.925
3.853
3.778
3.7
3.621
3.54
3.459
3.378
3.297
3.217
3.138
3.062
2.987
2.916
2.847
2.782
2.721
2.663
2.61
2.561
2.517
4.383
4.374
4.359
4.336
4.306
4.27
4.228
4.18
4.126
4.067
4.004
3.937
3.866
3.793
3.717
3.639
3.56
3.481
3.401
3.321
3.243
3.166
3.091
3.018
2.948
2.88
2.817
2.756
2.7
2.648
2.6
2.556
4.385
4.376
4.361
4.339
4.31
4.275
4.233
4.187
4.134
4.077
4.016
3.951
3.882
3.81
3.736
3.66
3.583
3.506
3.428
3.351
3.274
3.199
3.125
3.054
2.986
2.92
2.857
2.798
2.743
2.692
2.645
2.602
4.386
4.378
4.363
4.341
4.313
4.279
4.24
4.194
4.144
4.088
4.029
3.966
3.899
3.829
3.758
3.684
3.61
3.534
3.459
3.384
3.309
3.236
3.165
3.096
3.029
2.965
2.904
2.847
2.793
2.743
2.697
2.655
4.387
4.379
4.364
4.344
4.317
4.284
4.246
4.202
4.153
4.1
4.043
3.982
3.918
3.851
3.782
3.711
3.639
3.566
3.493
3.421
3.349
3.278
3.209
3.142
3.077
3.015
2.956
2.901
2.848
2.8
2.755
2.715
4.386
4.379
4.365
4.345
4.319
4.288
4.251
4.21
4.163
4.112
4.057
3.999
3.937
3.873
3.807
3.739
3.67
3.6
3.53
3.461
3.392
3.324
3.257
3.193
3.13
3.071
3.014
2.96
2.91
2.863
2.82
2.781
4.385
4.378
4.364
4.345
4.321
4.291
4.256
4.217
4.173
4.124
4.072
4.016
3.958
3.897
3.834
3.769
3.703
3.637
3.57
3.504
3.438
3.373
3.309
3.247
3.188
3.131
3.076
3.025
2.976
2.931
2.89
2.852
4.382
4.375
4.362
4.344
4.321
4.293
4.261
4.223
4.181
4.136
4.087
4.034
3.979
3.921
3.862
3.8
3.738
3.675
3.612
3.549
3.486
3.425
3.364
3.306
3.249
3.195
3.143
3.094
3.047
3.005
2.965
2.929
4.376
4.37
4.358
4.342
4.32
4.294
4.263
4.228
4.189
4.147
4.1
4.051
4
3.946
3.89
3.832
3.774
3.715
3.655
3.596
3.537
3.479
3.422
3.367
3.313
3.262
3.213
3.166
3.123
3.082
3.045
3.01
4.369
4.363
4.352
4.337
4.317
4.292
4.264
4.232
4.196
4.156
4.113
4.068
4.02
3.97
3.918
3.864
3.81
3.755
3.7
3.644
3.589
3.535
3.482
3.43
3.38
3.332
3.286
3.242
3.201
3.163
3.128
3.096
4.359
4.353
4.343
4.329
4.311
4.289
4.263
4.233
4.2
4.164
4.125
4.083
4.039
3.993
3.945
3.896
3.846
3.795
3.744
3.693
3.643
3.593
3.543
3.496
3.449
3.404
3.362
3.321
3.283
3.247
3.215
3.185
4.345
4.34
4.331
4.319
4.302
4.282
4.259
4.232
4.202
4.17
4.134
4.097
4.057
4.015
3.972
3.927
3.882
3.836
3.789
3.743
3.696
3.651
3.606
3.562
3.519
3.478
3.439
3.402
3.367
3.334
3.304
3.276
4.328
4.324
4.316
4.305
4.291
4.273
4.252
4.229
4.202
4.173
4.142
4.108
4.072
4.035
3.996
3.957
3.916
3.875
3.833
3.791
3.749
3.708
3.667
3.628
3.589
3.552
3.517
3.483
3.451
3.421
3.393
3.368
4.309
4.305
4.298
4.289
4.276
4.261
4.243
4.222
4.199
4.173
4.145
4.116
4.084
4.051
4.017
3.982
3.946
3.909
3.872
3.834
3.797
3.76
3.724
3.689
3.654
3.621
3.588
3.558
3.529
3.502
3.477
3.454