/*--------------------------------*- C++ -*----------------------------------*\
  =========                 |
  \\      /  F ield         | OpenFOAM: The Open Source CFD Toolbox
   \\    /   O peration     | Website:  https://openfoam.org
    \\  /    A nd           | Version:  6
     \\/     M anipulation  |
\*---------------------------------------------------------------------------*/
FoamFile
{
    version     2.0;
    format      ascii;
    class       volScalarField;
    location    "10";
    object      T;
}
// * * * * * * * * * * * * * * * * * * * * * * * * * * * * * * * * * * * * * //

dimensions      [0 0 0 1 0 0 0];

internalField   nonuniform List<scalar> 
16128
(
4.627
4.618
4.602
4.58
4.552
4.518
4.478
4.433
4.383
4.328
4.268
4.205
4.138
4.067
3.995
3.92
3.844
3.766
3.688
3.61
3.532
3.456
3.38
3.307
3.236
3.167
3.101
3.039
2.98
2.926
2.875
2.829
4.627
4.618
4.602
4.581
4.553
4.519
4.479
4.434
4.384
4.329
4.27
4.206
4.14
4.07
3.997
3.923
3.847
3.77
3.692
3.614
3.537
3.46
3.385
3.312
3.241
3.173
3.107
3.045
2.987
2.932
2.882
2.836
4.627
4.618
4.603
4.581
4.553
4.52
4.481
4.436
4.386
4.332
4.273
4.21
4.144
4.074
4.003
3.929
3.853
3.777
3.699
3.622
3.545
3.47
3.395
3.322
3.252
3.184
3.119
3.057
2.999
2.945
2.895
2.85
4.627
4.619
4.603
4.582
4.555
4.521
4.483
4.438
4.389
4.335
4.277
4.215
4.15
4.081
4.01
3.937
3.863
3.787
3.711
3.634
3.558
3.483
3.41
3.338
3.268
3.201
3.137
3.076
3.018
2.965
2.915
2.87
4.57
4.561
4.545
4.523
4.494
4.458
4.417
4.37
4.318
4.261
4.2
4.134
4.065
3.992
3.918
3.841
3.762
3.683
3.603
3.523
3.443
3.365
3.288
3.213
3.141
3.071
3.004
2.941
2.882
2.827
2.776
2.73
4.571
4.562
4.546
4.523
4.494
4.459
4.418
4.371
4.319
4.263
4.201
4.136
4.067
3.995
3.92
3.844
3.765
3.686
3.607
3.527
3.448
3.37
3.293
3.219
3.146
3.077
3.011
2.948
2.889
2.834
2.783
2.737
4.571
4.562
4.546
4.524
4.495
4.46
4.419
4.373
4.322
4.265
4.205
4.14
4.071
4
3.926
3.85
3.772
3.694
3.614
3.535
3.457
3.379
3.303
3.229
3.158
3.089
3.023
2.96
2.902
2.847
2.797
2.751
4.571
4.562
4.547
4.525
4.496
4.462
4.422
4.376
4.325
4.269
4.209
4.145
4.078
4.007
3.934
3.859
3.782
3.704
3.626
3.548
3.47
3.394
3.319
3.245
3.174
3.106
3.041
2.979
2.921
2.867
2.817
2.772
4.515
4.506
4.489
4.466
4.436
4.4
4.357
4.308
4.254
4.195
4.132
4.064
3.992
3.918
3.841
3.761
3.681
3.599
3.517
3.435
3.354
3.274
3.195
3.119
3.045
2.975
2.907
2.843
2.783
2.727
2.676
2.629
4.516
4.506
4.49
4.466
4.437
4.4
4.358
4.309
4.256
4.197
4.133
4.066
3.995
3.92
3.844
3.765
3.684
3.603
3.521
3.44
3.359
3.279
3.201
3.125
3.051
2.981
2.913
2.85
2.79
2.734
2.683
2.636
4.516
4.507
4.49
4.467
4.438
4.402
4.359
4.311
4.258
4.2
4.137
4.07
3.999
3.926
3.849
3.771
3.691
3.611
3.529
3.448
3.368
3.289
3.211
3.136
3.063
2.993
2.926
2.863
2.803
2.748
2.697
2.651
4.516
4.507
4.491
4.468
4.439
4.403
4.362
4.314
4.262
4.204
4.142
4.076
4.006
3.933
3.858
3.781
3.702
3.622
3.542
3.462
3.382
3.304
3.227
3.153
3.081
3.011
2.945
2.882
2.824
2.769
2.719
2.673
4.461
4.452
4.435
4.411
4.379
4.342
4.297
4.247
4.191
4.13
4.064
3.994
3.921
3.844
3.764
3.682
3.599
3.516
3.431
3.347
3.264
3.183
3.103
3.025
2.95
2.878
2.809
2.744
2.684
2.627
2.575
2.528
4.462
4.452
4.435
4.411
4.38
4.342
4.298
4.248
4.193
4.132
4.066
3.996
3.923
3.846
3.767
3.686
3.603
3.52
3.436
3.352
3.269
3.188
3.108
3.031
2.956
2.884
2.816
2.751
2.691
2.634
2.583
2.536
4.462
4.453
4.436
4.412
4.381
4.344
4.3
4.251
4.195
4.135
4.07
4.001
3.928
3.852
3.773
3.693
3.61
3.528
3.444
3.361
3.279
3.198
3.119
3.042
2.968
2.897
2.829
2.765
2.705
2.649
2.597
2.551
4.463
4.453
4.437
4.413
4.383
4.346
4.303
4.254
4.199
4.14
4.075
4.007
3.935
3.86
3.782
3.702
3.621
3.539
3.457
3.375
3.294
3.214
3.136
3.06
2.986
2.916
2.848
2.785
2.725
2.67
2.619
2.573
4.408
4.399
4.381
4.356
4.324
4.285
4.239
4.187
4.129
4.066
3.998
3.925
3.849
3.77
3.688
3.604
3.518
3.432
3.346
3.26
3.175
3.091
3.009
2.93
2.854
2.781
2.711
2.645
2.584
2.527
2.474
2.427
4.409
4.399
4.381
4.357
4.324
4.285
4.24
4.188
4.13
4.067
4
3.928
3.852
3.773
3.691
3.607
3.522
3.436
3.35
3.265
3.18
3.097
3.015
2.936
2.86
2.787
2.718
2.652
2.591
2.534
2.482
2.434
4.409
4.4
4.382
4.357
4.326
4.287
4.242
4.19
4.133
4.071
4.004
3.932
3.857
3.778
3.697
3.614
3.53
3.445
3.359
3.274
3.19
3.107
3.027
2.948
2.873
2.8
2.731
2.666
2.605
2.549
2.497
2.45
4.41
4.4
4.383
4.359
4.327
4.289
4.245
4.194
4.137
4.076
4.009
3.939
3.864
3.787
3.707
3.625
3.541
3.457
3.373
3.289
3.205
3.124
3.044
2.966
2.891
2.82
2.752
2.687
2.627
2.571
2.519
2.473
4.357
4.347
4.328
4.303
4.269
4.229
4.181
4.127
4.067
4.002
3.932
3.857
3.778
3.696
3.611
3.525
3.437
3.349
3.26
3.172
3.085
2.999
2.916
2.835
2.757
2.683
2.612
2.546
2.483
2.426
2.373
2.325
4.357
4.347
4.329
4.303
4.27
4.23
4.182
4.129
4.069
4.004
3.934
3.859
3.781
3.699
3.615
3.529
3.441
3.353
3.265
3.177
3.09
3.005
2.922
2.841
2.764
2.69
2.619
2.553
2.491
2.433
2.38
2.332
4.358
4.348
4.33
4.304
4.271
4.231
4.184
4.131
4.072
4.007
3.938
3.864
3.786
3.705
3.621
3.536
3.449
3.362
3.274
3.187
3.101
3.016
2.934
2.854
2.777
2.703
2.633
2.567
2.506
2.448
2.396
2.348
4.358
4.349
4.331
4.306
4.273
4.234
4.187
4.135
4.076
4.013
3.944
3.871
3.794
3.714
3.631
3.547
3.461
3.375
3.288
3.202
3.117
3.033
2.952
2.872
2.796
2.723
2.654
2.589
2.528
2.471
2.419
2.372
4.306
4.296
4.277
4.25
4.216
4.174
4.124
4.069
4.007
3.939
3.866
3.789
3.707
3.623
3.535
3.446
3.356
3.265
3.174
3.084
2.995
2.907
2.822
2.74
2.66
2.585
2.513
2.445
2.382
2.324
2.27
2.222
4.306
4.296
4.277
4.251
4.216
4.174
4.126
4.07
4.008
3.941
3.868
3.791
3.71
3.626
3.539
3.45
3.36
3.27
3.179
3.089
3
2.913
2.828
2.746
2.667
2.592
2.52
2.453
2.39
2.332
2.278
2.23
4.307
4.297
4.278
4.252
4.218
4.176
4.128
4.073
4.011
3.944
3.872
3.796
3.716
3.632
3.546
3.458
3.369
3.279
3.189
3.099
3.011
2.925
2.841
2.759
2.681
2.606
2.535
2.468
2.405
2.348
2.294
2.246
4.308
4.298
4.28
4.254
4.22
4.179
4.131
4.077
4.016
3.95
3.879
3.803
3.724
3.641
3.556
3.469
3.381
3.292
3.203
3.115
3.028
2.942
2.859
2.778
2.701
2.627
2.556
2.49
2.428
2.371
2.318
2.271
4.256
4.246
4.226
4.199
4.163
4.119
4.069
4.011
3.946
3.876
3.801
3.721
3.637
3.55
3.46
3.368
3.275
3.181
3.088
2.995
2.904
2.815
2.728
2.644
2.563
2.486
2.414
2.345
2.281
2.222
2.168
2.119
4.257
4.246
4.227
4.199
4.164
4.12
4.07
4.012
3.948
3.878
3.803
3.724
3.64
3.553
3.463
3.372
3.279
3.186
3.093
3.001
2.91
2.821
2.734
2.651
2.57
2.494
2.421
2.353
2.289
2.23
2.176
2.128
4.258
4.247
4.228
4.201
4.165
4.122
4.072
4.015
3.952
3.882
3.808
3.729
3.646
3.56
3.471
3.38
3.288
3.196
3.103
3.012
2.922
2.833
2.747
2.664
2.584
2.508
2.436
2.368
2.305
2.246
2.193
2.144
4.259
4.248
4.229
4.202
4.168
4.125
4.075
4.019
3.956
3.888
3.815
3.736
3.655
3.569
3.482
3.392
3.301
3.21
3.119
3.028
2.939
2.851
2.766
2.684
2.605
2.53
2.458
2.391
2.328
2.27
2.217
2.169
4.208
4.197
4.177
4.148
4.111
4.066
4.013
3.954
3.887
3.814
3.736
3.654
3.567
3.477
3.384
3.29
3.194
3.098
3.002
2.907
2.814
2.722
2.634
2.548
2.466
2.388
2.314
2.244
2.18
2.12
2.065
2.016
4.208
4.197
4.178
4.149
4.112
4.067
4.015
3.955
3.889
3.817
3.739
3.656
3.57
3.48
3.388
3.294
3.199
3.103
3.008
2.913
2.82
2.729
2.64
2.555
2.473
2.395
2.321
2.252
2.188
2.128
2.074
2.025
4.209
4.198
4.179
4.15
4.114
4.069
4.017
3.958
3.892
3.821
3.744
3.662
3.576
3.487
3.396
3.302
3.208
3.113
3.018
2.924
2.832
2.741
2.654
2.569
2.488
2.41
2.337
2.268
2.204
2.145
2.091
2.042
4.21
4.2
4.18
4.152
4.116
4.072
4.021
3.962
3.898
3.827
3.751
3.67
3.586
3.498
3.407
3.315
3.222
3.128
3.034
2.941
2.85
2.76
2.673
2.59
2.509
2.432
2.36
2.292
2.228
2.169
2.116
2.067
4.16
4.149
4.129
4.099
4.061
4.014
3.959
3.897
3.828
3.753
3.673
3.587
3.497
3.405
3.309
3.212
3.113
3.015
2.916
2.819
2.723
2.63
2.539
2.452
2.368
2.289
2.214
2.143
2.078
2.018
1.963
1.913
4.161
4.15
4.129
4.1
4.062
4.015
3.961
3.899
3.83
3.755
3.675
3.59
3.501
3.408
3.313
3.216
3.118
3.02
2.922
2.825
2.729
2.636
2.546
2.459
2.376
2.297
2.222
2.152
2.086
2.026
1.971
1.922
4.162
4.151
4.131
4.101
4.063
4.017
3.963
3.902
3.834
3.76
3.68
3.596
3.507
3.415
3.321
3.225
3.128
3.03
2.933
2.837
2.742
2.65
2.56
2.473
2.391
2.312
2.238
2.168
2.103
2.043
1.989
1.939
4.163
4.152
4.132
4.103
4.066
4.02
3.967
3.907
3.84
3.766
3.688
3.604
3.517
3.426
3.333
3.238
3.142
3.045
2.949
2.854
2.761
2.669
2.58
2.495
2.413
2.335
2.261
2.192
2.128
2.069
2.014
1.965
4.114
4.103
4.081
4.051
4.011
3.963
3.906
3.842
3.77
3.693
3.609
3.521
3.428
3.333
3.234
3.134
3.033
2.931
2.83
2.73
2.633
2.537
2.445
2.356
2.271
2.19
2.114
2.042
1.976
1.915
1.86
1.81
4.115
4.103
4.082
4.052
4.012
3.964
3.907
3.843
3.772
3.695
3.612
3.524
3.432
3.336
3.238
3.138
3.038
2.937
2.836
2.737
2.639
2.544
2.452
2.363
2.278
2.198
2.122
2.051
1.985
1.924
1.869
1.819
4.116
4.104
4.083
4.053
4.014
3.966
3.91
3.847
3.776
3.7
3.617
3.53
3.439
3.344
3.247
3.148
3.048
2.947
2.848
2.749
2.652
2.558
2.466
2.378
2.294
2.214
2.138
2.068
2.002
1.942
1.886
1.837
4.117
4.106
4.085
4.055
4.017
3.97
3.914
3.852
3.782
3.707
3.625
3.539
3.449
3.355
3.259
3.161
3.063
2.963
2.865
2.767
2.671
2.578
2.487
2.4
2.317
2.237
2.163
2.093
2.027
1.968
1.913
1.863
4.069
4.057
4.035
4.004
3.962
3.912
3.854
3.787
3.713
3.633
3.547
3.455
3.36
3.261
3.159
3.056
2.952
2.848
2.744
2.642
2.542
2.444
2.35
2.259
2.173
2.091
2.014
1.942
1.875
1.813
1.757
1.707
4.07
4.058
4.036
4.004
3.963
3.914
3.855
3.789
3.715
3.635
3.549
3.459
3.363
3.265
3.164
3.061
2.957
2.854
2.75
2.649
2.549
2.451
2.357
2.267
2.181
2.099
2.022
1.95
1.883
1.822
1.766
1.716
4.071
4.059
4.037
4.006
3.966
3.916
3.858
3.792
3.72
3.64
3.555
3.465
3.371
3.273
3.173
3.071
2.968
2.865
2.762
2.661
2.562
2.466
2.372
2.282
2.197
2.115
2.039
1.967
1.901
1.84
1.784
1.734
4.072
4.061
4.039
4.009
3.968
3.92
3.863
3.798
3.726
3.647
3.563
3.474
3.381
3.285
3.186
3.085
2.983
2.881
2.78
2.68
2.582
2.487
2.394
2.305
2.22
2.14
2.064
1.993
1.927
1.867
1.811
1.762
4.025
4.013
3.99
3.957
3.915
3.863
3.802
3.733
3.657
3.574
3.485
3.39
3.292
3.19
3.085
2.979
2.872
2.765
2.659
2.554
2.451
2.352
2.255
2.163
2.075
1.992
1.914
1.841
1.773
1.711
1.655
1.605
4.026
4.014
3.991
3.958
3.916
3.864
3.804
3.735
3.659
3.576
3.488
3.394
3.295
3.194
3.09
2.984
2.877
2.771
2.665
2.561
2.458
2.359
2.263
2.171
2.083
2
1.922
1.85
1.782
1.721
1.664
1.614
4.027
4.015
3.993
3.96
3.918
3.867
3.807
3.739
3.664
3.582
3.493
3.4
3.303
3.202
3.099
2.994
2.888
2.782
2.677
2.574
2.472
2.374
2.278
2.187
2.1
2.017
1.94
1.867
1.8
1.739
1.683
1.633
4.029
4.017
3.995
3.963
3.921
3.871
3.812
3.745
3.67
3.589
3.502
3.41
3.314
3.215
3.113
3.009
2.904
2.8
2.696
2.593
2.493
2.395
2.301
2.211
2.124
2.042
1.965
1.894
1.827
1.766
1.71
1.66
3.982
3.97
3.946
3.912
3.868
3.815
3.752
3.68
3.601
3.515
3.423
3.326
3.224
3.119
3.011
2.902
2.792
2.682
2.573
2.466
2.361
2.259
2.161
2.067
1.978
1.893
1.814
1.74
1.672
1.61
1.553
1.503
3.983
3.97
3.947
3.913
3.87
3.816
3.753
3.682
3.604
3.518
3.426
3.329
3.228
3.123
3.016
2.907
2.798
2.688
2.58
2.473
2.368
2.267
2.169
2.075
1.986
1.902
1.823
1.749
1.681
1.619
1.563
1.512
3.984
3.972
3.949
3.915
3.872
3.819
3.757
3.686
3.608
3.524
3.433
3.336
3.236
3.132
3.026
2.918
2.809
2.7
2.592
2.486
2.383
2.282
2.185
2.092
2.003
1.919
1.841
1.767
1.7
1.638
1.582
1.531
3.986
3.974
3.951
3.918
3.875
3.823
3.762
3.692
3.615
3.531
3.442
3.347
3.248
3.145
3.04
2.933
2.826
2.718
2.612
2.507
2.404
2.304
2.208
2.116
2.028
1.945
1.867
1.794
1.727
1.666
1.61
1.559
3.941
3.928
3.904
3.868
3.823
3.767
3.702
3.629
3.547
3.458
3.363
3.262
3.157
3.049
2.938
2.825
2.712
2.599
2.488
2.378
2.271
2.167
2.067
1.971
1.881
1.795
1.715
1.641
1.572
1.509
1.453
1.402
3.941
3.929
3.904
3.87
3.824
3.769
3.704
3.631
3.549
3.461
3.366
3.266
3.161
3.053
2.943
2.831
2.718
2.606
2.495
2.385
2.278
2.175
2.075
1.98
1.889
1.804
1.724
1.65
1.581
1.519
1.462
1.411
3.943
3.93
3.906
3.872
3.827
3.772
3.708
3.635
3.554
3.466
3.372
3.273
3.17
3.062
2.953
2.842
2.73
2.618
2.508
2.399
2.293
2.19
2.091
1.997
1.907
1.822
1.742
1.668
1.6
1.538
1.481
1.431
3.945
3.932
3.909
3.875
3.83
3.776
3.713
3.641
3.561
3.475
3.382
3.284
3.182
3.076
2.968
2.858
2.747
2.637
2.528
2.42
2.316
2.214
2.116
2.022
1.932
1.848
1.769
1.696
1.628
1.566
1.51
1.459
3.9
3.887
3.862
3.826
3.779
3.721
3.654
3.578
3.493
3.401
3.303
3.199
3.091
2.979
2.865
2.749
2.633
2.517
2.403
2.291
2.181
2.075
1.973
1.876
1.784
1.697
1.616
1.541
1.472
1.41
1.353
1.302
3.901
3.888
3.863
3.827
3.78
3.723
3.656
3.58
3.496
3.404
3.306
3.203
3.095
2.984
2.87
2.755
2.639
2.524
2.41
2.298
2.189
2.083
1.982
1.885
1.793
1.706
1.626
1.551
1.482
1.419
1.362
1.312
3.902
3.889
3.865
3.829
3.783
3.726
3.659
3.584
3.501
3.41
3.313
3.211
3.104
2.993
2.881
2.766
2.652
2.537
2.424
2.313
2.204
2.099
1.998
1.902
1.811
1.725
1.644
1.57
1.501
1.438
1.382
1.331
3.905
3.892
3.867
3.832
3.786
3.73
3.665
3.591
3.508
3.419
3.323
3.222
3.116
3.008
2.896
2.783
2.67
2.557
2.445
2.335
2.227
2.123
2.023
1.928
1.837
1.752
1.672
1.598
1.529
1.467
1.411
1.36
3.861
3.847
3.822
3.784
3.735
3.676
3.606
3.528
3.44
3.345
3.244
3.137
3.025
2.91
2.793
2.674
2.555
2.436
2.319
2.204
2.092
1.984
1.88
1.781
1.688
1.6
1.519
1.443
1.374
1.311
1.254
1.204
3.862
3.848
3.823
3.785
3.737
3.678
3.608
3.53
3.443
3.349
3.248
3.141
3.03
2.915
2.798
2.68
2.561
2.443
2.326
2.211
2.1
1.992
1.889
1.79
1.697
1.61
1.528
1.453
1.384
1.321
1.264
1.214
3.863
3.85
3.825
3.788
3.74
3.681
3.612
3.535
3.448
3.355
3.255
3.149
3.039
2.925
2.809
2.692
2.574
2.456
2.34
2.226
2.116
2.009
1.906
1.808
1.715
1.628
1.547
1.472
1.403
1.34
1.283
1.233
3.866
3.853
3.827
3.791
3.744
3.686
3.618
3.541
3.456
3.364
3.265
3.161
3.052
2.94
2.825
2.709
2.593
2.476
2.362
2.249
2.14
2.033
1.932
1.834
1.742
1.656
1.575
1.5
1.432
1.369
1.313
1.262
3.823
3.809
3.783
3.744
3.693
3.632
3.56
3.479
3.389
3.291
3.186
3.076
2.961
2.842
2.721
2.599
2.477
2.355
2.235
2.117
2.003
1.893
1.788
1.688
1.593
1.504
1.422
1.346
1.277
1.214
1.157
1.107
3.824
3.81
3.784
3.745
3.695
3.634
3.562
3.481
3.391
3.294
3.19
3.08
2.965
2.847
2.727
2.605
2.483
2.362
2.242
2.125
2.011
1.902
1.797
1.697
1.602
1.514
1.432
1.356
1.287
1.224
1.167
1.117
3.826
3.812
3.786
3.748
3.698
3.637
3.566
3.486
3.397
3.3
3.197
3.088
2.975
2.858
2.738
2.617
2.496
2.376
2.257
2.141
2.028
1.919
1.814
1.715
1.621
1.533
1.451
1.375
1.306
1.243
1.187
1.137
3.828
3.814
3.789
3.751
3.702
3.642
3.572
3.493
3.405
3.31
3.208
3.1
2.988
2.873
2.755
2.636
2.516
2.397
2.279
2.164
2.052
1.944
1.841
1.742
1.649
1.561
1.48
1.404
1.335
1.273
1.216
1.166
3.786
3.772
3.745
3.705
3.653
3.589
3.515
3.431
3.338
3.237
3.129
3.015
2.897
2.775
2.651
2.525
2.399
2.275
2.152
2.032
1.915
1.803
1.696
1.595
1.499
1.41
1.327
1.251
1.181
1.118
1.062
1.013
3.787
3.773
3.746
3.706
3.654
3.591
3.517
3.434
3.341
3.24
3.133
3.02
2.902
2.78
2.656
2.531
2.406
2.282
2.16
2.04
1.924
1.812
1.705
1.604
1.509
1.419
1.337
1.26
1.191
1.128
1.072
1.022
3.789
3.775
3.748
3.709
3.657
3.595
3.522
3.439
3.347
3.247
3.141
3.028
2.911
2.791
2.668
2.544
2.42
2.297
2.175
2.056
1.941
1.83
1.723
1.623
1.528
1.439
1.356
1.28
1.211
1.148
1.092
1.042
3.792
3.778
3.751
3.712
3.662
3.6
3.528
3.446
3.355
3.257
3.152
3.041
2.926
2.807
2.686
2.563
2.44
2.318
2.198
2.08
1.966
1.856
1.751
1.65
1.556
1.467
1.385
1.31
1.24
1.178
1.121
1.072
3.751
3.736
3.708
3.667
3.613
3.548
3.471
3.384
3.288
3.184
3.073
2.956
2.834
2.709
2.581
2.452
2.323
2.196
2.07
1.947
1.829
1.715
1.606
1.503
1.406
1.316
1.233
1.157
1.088
1.025
0.9697
0.9207
3.752
3.737
3.709
3.668
3.615
3.55
3.473
3.387
3.292
3.188
3.077
2.96
2.839
2.714
2.587
2.459
2.33
2.203
2.078
1.956
1.837
1.724
1.615
1.513
1.416
1.326
1.243
1.167
1.098
1.035
0.9795
0.9304
3.754
3.739
3.712
3.671
3.618
3.554
3.478
3.392
3.298
3.195
3.085
2.969
2.849
2.725
2.599
2.472
2.345
2.218
2.094
1.973
1.855
1.742
1.634
1.532
1.435
1.346
1.263
1.187
1.117
1.055
0.9991
0.9499
3.757
3.742
3.715
3.675
3.623
3.559
3.485
3.4
3.307
3.205
3.097
2.983
2.864
2.742
2.617
2.491
2.366
2.241
2.118
1.997
1.881
1.769
1.662
1.56
1.464
1.375
1.292
1.216
1.147
1.085
1.029
0.9793
3.717
3.702
3.673
3.63
3.575
3.508
3.429
3.339
3.24
3.133
3.018
2.898
2.772
2.643
2.512
3.718
3.703
3.674
3.632
3.577
3.51
3.431
3.342
3.243
3.137
3.022
2.902
2.778
2.649
3.72
3.705
3.677
3.635
3.58
3.514
3.436
3.347
3.25
3.144
3.031
2.912
2.788
3.723
3.708
3.68
3.639
3.585
3.519
3.443
3.356
3.259
3.155
3.043
2.926
4.628
4.619
4.604
4.583
4.556
4.523
4.485
4.442
4.393
4.34
4.283
4.222
4.158
4.09
4.02
3.948
3.875
3.8
3.725
3.65
3.576
3.502
3.429
3.358
3.289
3.223
3.16
3.1
3.043
2.99
2.942
2.897
4.628
4.619
4.604
4.584
4.557
4.525
4.488
4.445
4.398
4.346
4.29
4.23
4.167
4.101
4.033
3.962
3.89
3.817
3.743
3.67
3.596
3.524
3.453
3.383
3.316
3.251
3.189
3.13
3.074
3.022
2.974
2.931
4.627
4.619
4.605
4.584
4.559
4.527
4.491
4.449
4.403
4.353
4.298
4.24
4.178
4.114
4.047
3.978
3.908
3.837
3.765
3.693
3.621
3.55
3.481
3.413
3.347
3.283
3.223
3.165
3.11
3.06
3.013
2.97
4.626
4.618
4.604
4.585
4.56
4.529
4.494
4.454
4.409
4.36
4.307
4.25
4.19
4.128
4.063
3.996
3.928
3.859
3.789
3.719
3.649
3.58
3.513
3.447
3.382
3.321
3.261
3.205
3.152
3.103
3.057
3.015
4.625
4.617
4.603
4.584
4.56
4.531
4.497
4.458
4.415
4.367
4.316
4.261
4.204
4.143
4.08
4.016
3.95
3.883
3.815
3.748
3.68
3.614
3.548
3.484
3.422
3.362
3.305
3.25
3.199
3.151
3.107
3.066
4.622
4.615
4.601
4.583
4.56
4.532
4.499
4.462
4.42
4.375
4.325
4.273
4.217
4.159
4.099
4.037
3.974
3.909
3.844
3.779
3.714
3.65
3.587
3.525
3.465
3.408
3.352
3.3
3.25
3.204
3.161
3.122
4.618
4.611
4.598
4.581
4.559
4.532
4.5
4.465
4.425
4.382
4.335
4.285
4.232
4.176
4.119
4.059
3.999
3.937
3.875
3.813
3.751
3.689
3.629
3.57
3.512
3.457
3.404
3.353
3.306
3.261
3.22
3.183
4.613
4.606
4.594
4.577
4.556
4.531
4.501
4.467
4.429
4.388
4.344
4.296
4.246
4.193
4.139
4.082
4.025
3.966
3.907
3.848
3.789
3.731
3.673
3.617
3.562
3.509
3.459
3.41
3.365
3.323
3.283
3.248
4.605
4.599
4.587
4.572
4.552
4.528
4.5
4.468
4.433
4.394
4.352
4.307
4.26
4.21
4.159
4.106
4.051
3.996
3.941
3.885
3.829
3.774
3.719
3.666
3.614
3.564
3.516
3.471
3.428
3.387
3.35
3.316
4.596
4.589
4.579
4.564
4.546
4.523
4.497
4.468
4.435
4.398
4.359
4.318
4.273
4.227
4.179
4.129
4.078
4.027
3.975
3.922
3.87
3.818
3.767
3.717
3.668
3.622
3.576
3.534
3.493
3.455
3.42
3.388
4.584
4.578
4.568
4.554
4.537
4.517
4.493
4.465
4.435
4.401
4.365
4.327
4.286
4.243
4.198
4.152
4.105
4.057
4.009
3.96
3.912
3.863
3.816
3.77
3.724
3.681
3.639
3.599
3.561
3.525
3.493
3.463
4.569
4.563
4.554
4.542
4.526
4.508
4.486
4.461
4.433
4.403
4.369
4.334
4.297
4.257
4.217
4.174
4.131
4.087
4.043
3.998
3.954
3.909
3.866
3.823
3.781
3.741
3.702
3.665
3.63
3.598
3.567
3.54
4.55
4.546
4.538
4.527
4.513
4.496
4.476
4.454
4.429
4.401
4.372
4.34
4.306
4.27
4.233
4.195
4.156
4.116
4.076
4.035
3.995
3.955
3.915
3.876
3.838
3.801
3.766
3.732
3.701
3.671
3.643
3.618
4.529
4.525
4.518
4.509
4.497
4.482
4.465
4.445
4.422
4.398
4.371
4.343
4.313
4.281
4.248
4.214
4.179
4.143
4.107
4.07
4.034
3.998
3.962
3.927
3.893
3.86
3.828
3.798
3.769
3.742
3.717
3.694
4.508
4.505
4.5
4.492
4.481
4.468
4.452
4.434
4.414
4.392
4.368
4.342
4.315
4.287
4.257
4.226
4.194
4.162
4.129
4.096
4.063
4.03
3.998
3.966
3.935
3.905
3.876
3.848
3.822
3.798
3.775
3.754
4.572
4.563
4.547
4.526
4.498
4.464
4.424
4.379
4.329
4.275
4.216
4.152
4.086
4.017
3.945
3.871
3.795
3.719
3.642
3.565
3.488
3.413
3.339
3.267
3.197
3.129
3.065
3.004
2.947
2.894
2.844
2.8
4.572
4.563
4.548
4.527
4.499
4.466
4.428
4.384
4.335
4.281
4.223
4.161
4.096
4.028
3.957
3.885
3.811
3.736
3.661
3.585
3.51
3.436
3.363
3.293
3.224
3.158
3.095
3.035
2.979
2.926
2.878
2.834
4.572
4.563
4.549
4.528
4.501
4.469
4.431
4.388
4.34
4.288
4.231
4.171
4.108
4.041
3.973
3.902
3.83
3.756
3.683
3.609
3.536
3.464
3.393
3.323
3.256
3.192
3.13
3.072
3.016
2.965
2.918
2.875
4.571
4.563
4.548
4.528
4.502
4.471
4.434
4.393
4.346
4.296
4.241
4.182
4.121
4.056
3.989
3.921
3.851
3.78
3.708
3.636
3.565
3.495
3.426
3.358
3.293
3.23
3.17
3.113
3.06
3.01
2.963
2.921
4.57
4.562
4.548
4.528
4.503
4.473
4.437
4.397
4.353
4.304
4.251
4.194
4.135
4.072
4.008
3.942
3.874
3.805
3.736
3.667
3.598
3.53
3.463
3.398
3.334
3.273
3.215
3.16
3.108
3.059
3.015
2.974
4.567
4.559
4.546
4.527
4.503
4.474
4.44
4.402
4.359
4.312
4.261
4.207
4.149
4.09
4.028
3.964
3.899
3.833
3.766
3.699
3.633
3.568
3.503
3.44
3.379
3.321
3.265
3.211
3.161
3.114
3.071
3.031
4.563
4.556
4.543
4.525
4.502
4.474
4.442
4.405
4.364
4.319
4.271
4.219
4.165
4.107
4.048
3.987
3.925
3.862
3.798
3.734
3.671
3.608
3.547
3.486
3.428
3.372
3.318
3.267
3.218
3.173
3.132
3.094
4.558
4.551
4.538
4.521
4.5
4.473
4.443
4.408
4.369
4.326
4.281
4.232
4.18
4.126
4.069
4.012
3.952
3.892
3.832
3.771
3.711
3.651
3.593
3.535
3.48
3.426
3.375
3.326
3.28
3.237
3.197
3.161
4.551
4.544
4.532
4.516
4.496
4.471
4.442
4.409
4.373
4.333
4.29
4.243
4.195
4.144
4.091
4.036
3.98
3.924
3.867
3.81
3.753
3.696
3.641
3.587
3.534
3.483
3.434
3.388
3.344
3.304
3.266
3.232
4.541
4.534
4.524
4.509
4.49
4.466
4.44
4.409
4.375
4.338
4.298
4.254
4.209
4.161
4.112
4.061
4.009
3.956
3.902
3.849
3.795
3.743
3.691
3.64
3.59
3.542
3.497
3.453
3.412
3.374
3.338
3.306
4.529
4.523
4.513
4.499
4.481
4.46
4.435
4.407
4.376
4.341
4.304
4.264
4.222
4.178
4.132
4.085
4.037
3.988
3.938
3.889
3.839
3.79
3.741
3.694
3.648
3.604
3.561
3.52
3.482
3.446
3.413
3.383
4.513
4.508
4.499
4.486
4.47
4.451
4.429
4.403
4.374
4.343
4.309
4.273
4.234
4.194
4.152
4.109
4.064
4.019
3.974
3.928
3.883
3.838
3.793
3.749
3.707
3.666
3.627
3.589
3.554
3.521
3.49
3.462
4.495
4.49
4.482
4.471
4.457
4.439
4.419
4.396
4.37
4.342
4.312
4.279
4.244
4.208
4.17
4.131
4.091
4.05
4.009
3.967
3.926
3.885
3.844
3.805
3.766
3.729
3.693
3.659
3.626
3.596
3.568
3.543
4.473
4.469
4.462
4.453
4.44
4.425
4.407
4.387
4.364
4.339
4.312
4.282
4.251
4.219
4.185
4.15
4.114
4.078
4.041
4.004
3.967
3.93
3.893
3.858
3.823
3.789
3.757
3.726
3.697
3.67
3.644
3.621
4.452
4.449
4.443
4.435
4.424
4.411
4.395
4.376
4.356
4.333
4.309
4.282
4.255
4.225
4.195
4.163
4.131
4.098
4.064
4.031
3.997
3.964
3.931
3.898
3.867
3.836
3.807
3.779
3.752
3.727
3.704
3.683
4.517
4.508
4.492
4.47
4.441
4.406
4.365
4.318
4.266
4.21
4.149
4.084
4.015
3.943
3.869
3.793
3.715
3.637
3.558
3.479
3.401
3.324
3.248
3.175
3.104
3.035
2.97
2.908
2.85
2.796
2.747
2.701
4.517
4.509
4.493
4.471
4.443
4.408
4.368
4.323
4.272
4.216
4.157
4.093
4.026
3.955
3.883
3.808
3.732
3.655
3.578
3.5
3.424
3.348
3.274
3.202
3.132
3.065
3.001
2.94
2.883
2.83
2.781
2.737
4.517
4.509
4.493
4.472
4.444
4.411
4.372
4.327
4.278
4.224
4.166
4.103
4.038
3.969
3.899
3.826
3.752
3.676
3.601
3.525
3.45
3.377
3.304
3.234
3.165
3.1
3.037
2.978
2.922
2.87
2.822
2.779
4.517
4.508
4.494
4.473
4.446
4.414
4.376
4.333
4.285
4.232
4.176
4.115
4.052
3.985
3.916
3.846
3.774
3.701
3.627
3.554
3.481
3.409
3.339
3.27
3.204
3.14
3.079
3.021
2.967
2.916
2.869
2.827
4.516
4.507
4.493
4.473
4.447
4.416
4.379
4.338
4.291
4.241
4.186
4.128
4.066
4.002
3.936
3.867
3.798
3.727
3.656
3.585
3.515
3.445
3.377
3.311
3.246
3.184
3.125
3.069
3.016
2.967
2.922
2.881
4.513
4.505
4.491
4.472
4.447
4.417
4.382
4.342
4.298
4.249
4.197
4.141
4.082
4.02
3.957
3.891
3.824
3.756
3.688
3.62
3.552
3.485
3.419
3.355
3.293
3.233
3.176
3.122
3.071
3.024
2.98
2.94
4.51
4.502
4.489
4.47
4.446
4.418
4.384
4.346
4.304
4.258
4.208
4.154
4.098
4.039
3.978
3.916
3.852
3.787
3.722
3.656
3.591
3.527
3.464
3.403
3.344
3.286
3.232
3.18
3.131
3.085
3.043
3.005
4.504
4.497
4.484
4.467
4.444
4.417
4.385
4.349
4.309
4.265
4.218
4.168
4.114
4.058
4.001
3.941
3.88
3.819
3.757
3.695
3.633
3.572
3.512
3.454
3.397
3.343
3.29
3.241
3.194
3.151
3.11
3.074
4.497
4.49
4.478
4.461
4.44
4.415
4.385
4.351
4.314
4.272
4.228
4.18
4.13
4.078
4.023
3.967
3.91
3.852
3.793
3.735
3.677
3.619
3.562
3.507
3.453
3.402
3.352
3.305
3.261
3.22
3.182
3.147
4.487
4.481
4.469
4.454
4.434
4.411
4.383
4.351
4.316
4.278
4.236
4.192
4.145
4.096
4.045
3.993
3.94
3.885
3.831
3.776
3.721
3.667
3.614
3.562
3.512
3.463
3.417
3.373
3.331
3.292
3.256
3.223
4.475
4.469
4.458
4.444
4.426
4.404
4.379
4.35
4.317
4.282
4.244
4.203
4.159
4.114
4.067
4.019
3.969
3.919
3.868
3.817
3.767
3.716
3.667
3.619
3.572
3.527
3.483
3.442
3.403
3.367
3.334
3.303
4.459
4.454
4.444
4.432
4.415
4.395
4.372
4.346
4.316
4.284
4.249
4.212
4.172
4.131
4.088
4.043
3.998
3.952
3.905
3.859
3.812
3.766
3.721
3.676
3.633
3.592
3.552
3.514
3.478
3.444
3.413
3.385
4.441
4.436
4.427
4.416
4.401
4.384
4.363
4.339
4.313
4.284
4.252
4.218
4.183
4.146
4.107
4.067
4.026
3.984
3.942
3.9
3.857
3.815
3.774
3.734
3.695
3.657
3.62
3.585
3.553
3.522
3.493
3.467
4.418
4.414
4.407
4.397
4.385
4.369
4.351
4.33
4.306
4.28
4.253
4.223
4.191
4.158
4.123
4.087
4.051
4.013
3.976
3.938
3.9
3.862
3.825
3.789
3.753
3.719
3.686
3.655
3.625
3.597
3.572
3.548
4.397
4.394
4.388
4.379
4.368
4.354
4.338
4.319
4.298
4.275
4.25
4.223
4.194
4.164
4.133
4.101
4.068
4.034
4
3.966
3.932
3.898
3.864
3.831
3.799
3.768
3.738
3.709
3.682
3.657
3.633
3.612
4.463
4.454
4.438
4.414
4.385
4.348
4.306
4.258
4.204
4.146
4.082
4.015
3.944
3.87
3.794
3.715
3.636
3.555
3.474
3.393
3.313
3.234
3.157
3.082
3.01
2.94
2.874
2.812
2.753
2.698
2.648
2.602
4.464
4.455
4.439
4.416
4.387
4.351
4.31
4.263
4.21
4.153
4.091
4.025
3.955
3.883
3.808
3.731
3.653
3.574
3.495
3.416
3.337
3.26
3.184
3.11
3.039
2.971
2.906
2.845
2.787
2.733
2.684
2.639
4.464
4.455
4.44
4.417
4.389
4.354
4.314
4.268
4.217
4.161
4.1
4.036
3.968
3.898
3.825
3.75
3.674
3.596
3.519
3.442
3.365
3.289
3.216
3.144
3.074
3.007
2.944
2.884
2.827
2.774
2.726
2.682
4.464
4.455
4.44
4.418
4.391
4.357
4.318
4.273
4.224
4.169
4.111
4.049
3.983
3.914
3.844
3.771
3.697
3.622
3.547
3.471
3.397
3.323
3.251
3.182
3.114
3.049
2.987
2.928
2.873
2.822
2.775
2.732
4.463
4.454
4.439
4.419
4.392
4.36
4.322
4.279
4.231
4.179
4.122
4.062
3.999
3.932
3.864
3.794
3.722
3.65
3.577
3.504
3.432
3.361
3.292
3.224
3.158
3.095
3.035
2.978
2.925
2.875
2.829
2.787
4.46
4.452
4.438
4.418
4.392
4.361
4.325
4.284
4.238
4.188
4.134
4.076
4.015
3.952
3.886
3.818
3.75
3.68
3.61
3.54
3.471
3.402
3.335
3.27
3.207
3.146
3.088
3.033
2.981
2.933
2.889
2.849
4.457
4.449
4.435
4.416
4.392
4.362
4.328
4.288
4.245
4.197
4.145
4.09
4.032
3.972
3.909
3.844
3.779
3.712
3.645
3.578
3.512
3.446
3.382
3.32
3.259
3.201
3.145
3.092
3.043
2.997
2.954
2.915
4.452
4.444
4.431
4.413
4.39
4.362
4.329
4.292
4.251
4.205
4.156
4.104
4.049
3.992
3.932
3.871
3.809
3.746
3.682
3.619
3.555
3.493
3.432
3.372
3.315
3.259
3.206
3.156
3.108
3.064
3.024
2.986
4.444
4.437
4.425
4.408
4.386
4.36
4.329
4.294
4.255
4.213
4.167
4.118
4.066
4.012
3.956
3.898
3.84
3.78
3.72
3.66
3.601
3.542
3.484
3.428
3.373
3.321
3.27
3.223
3.178
3.136
3.097
3.062
4.434
4.428
4.416
4.401
4.38
4.356
4.327
4.295
4.259
4.219
4.176
4.13
4.082
4.032
3.98
3.926
3.871
3.815
3.759
3.703
3.647
3.592
3.538
3.485
3.434
3.384
3.337
3.292
3.25
3.211
3.174
3.141
4.422
4.416
4.405
4.391
4.372
4.349
4.323
4.293
4.26
4.223
4.184
4.142
4.097
4.051
4.002
3.953
3.902
3.85
3.798
3.746
3.695
3.643
3.593
3.544
3.496
3.45
3.406
3.364
3.325
3.288
3.254
3.223
4.406
4.401
4.391
4.378
4.361
4.34
4.317
4.289
4.259
4.226
4.19
4.151
4.111
4.068
4.024
3.979
3.932
3.885
3.837
3.79
3.742
3.695
3.649
3.604
3.56
3.517
3.477
3.438
3.401
3.367
3.336
3.307
4.387
4.382
4.374
4.362
4.347
4.329
4.307
4.283
4.256
4.226
4.193
4.159
4.122
4.084
4.044
4.003
3.961
3.919
3.875
3.832
3.789
3.746
3.704
3.663
3.623
3.584
3.547
3.512
3.479
3.448
3.419
3.392
4.364
4.36
4.353
4.343
4.33
4.314
4.295
4.273
4.249
4.223
4.194
4.164
4.131
4.097
4.061
4.025
3.987
3.949
3.911
3.872
3.833
3.795
3.757
3.72
3.684
3.649
3.616
3.584
3.554
3.526
3.499
3.475
4.342
4.339
4.333
4.324
4.313
4.299
4.282
4.263
4.241
4.217
4.192
4.164
4.135
4.104
4.072
4.04
4.006
3.971
3.937
3.902
3.867
3.832
3.798
3.764
3.731
3.699
3.669
3.64
3.612
3.587
3.563
3.541
4.411
4.401
4.384
4.36
4.33
4.292
4.248
4.198
4.143
4.082
4.017
3.947
3.874
3.798
3.719
3.638
3.556
3.473
3.39
3.307
3.226
3.145
3.066
2.99
2.916
2.845
2.778
2.715
2.655
2.6
2.549
2.503
4.412
4.402
4.386
4.362
4.332
4.295
4.252
4.203
4.149
4.09
4.026
3.958
3.886
3.811
3.734
3.655
3.574
3.493
3.412
3.331
3.25
3.171
3.094
3.019
2.947
2.877
2.811
2.749
2.69
2.636
2.586
2.54
4.412
4.403
4.387
4.364
4.334
4.298
4.257
4.209
4.156
4.098
4.036
3.969
3.9
3.827
3.752
3.674
3.596
3.517
3.437
3.358
3.279
3.202
3.127
3.053
2.983
2.915
2.85
2.789
2.732
2.678
2.629
2.585
4.412
4.403
4.387
4.365
4.336
4.302
4.261
4.215
4.164
4.107
4.047
3.983
3.915
3.844
3.771
3.696
3.62
3.543
3.466
3.389
3.313
3.238
3.164
3.093
3.024
2.958
2.895
2.835
2.779
2.727
2.68
2.636
4.411
4.402
4.387
4.366
4.338
4.304
4.265
4.221
4.171
4.117
4.059
3.997
3.931
3.863
3.793
3.72
3.647
3.572
3.498
3.423
3.349
3.277
3.206
3.137
3.07
3.006
2.945
2.887
2.833
2.782
2.736
2.693
4.409
4.4
4.386
4.365
4.339
4.307
4.269
4.226
4.179
4.127
4.071
4.012
3.949
3.883
3.816
3.746
3.676
3.604
3.532
3.461
3.39
3.32
3.251
3.185
3.12
3.058
2.999
2.944
2.891
2.842
2.798
2.757
4.405
4.397
4.383
4.364
4.338
4.308
4.272
4.231
4.186
4.137
4.083
4.027
3.967
3.904
3.84
3.773
3.706
3.638
3.569
3.501
3.433
3.366
3.3
3.236
3.174
3.115
3.059
3.005
2.955
2.908
2.865
2.825
4.4
4.392
4.379
4.36
4.337
4.308
4.274
4.235
4.193
4.146
4.095
4.042
3.985
3.926
3.865
3.802
3.738
3.673
3.608
3.543
3.478
3.414
3.352
3.291
3.232
3.176
3.122
3.071
3.022
2.978
2.936
2.899
4.393
4.385
4.373
4.355
4.333
4.306
4.274
4.238
4.198
4.154
4.107
4.056
4.003
3.947
3.89
3.83
3.77
3.709
3.647
3.586
3.525
3.465
3.406
3.348
3.293
3.239
3.188
3.14
3.094
3.052
3.012
2.977
4.383
4.376
4.364
4.348
4.327
4.302
4.272
4.239
4.202
4.161
4.117
4.07
4.02
3.968
3.914
3.859
3.803
3.746
3.688
3.631
3.574
3.517
3.462
3.408
3.356
3.305
3.257
3.212
3.169
3.129
3.092
3.058
4.37
4.364
4.353
4.338
4.319
4.296
4.269
4.238
4.203
4.166
4.125
4.082
4.036
3.988
3.938
3.887
3.835
3.782
3.729
3.676
3.623
3.571
3.519
3.469
3.42
3.374
3.329
3.286
3.246
3.209
3.174
3.143
4.354
4.348
4.339
4.325
4.308
4.287
4.262
4.234
4.203
4.169
4.132
4.092
4.05
4.007
3.961
3.915
3.867
3.819
3.77
3.721
3.672
3.624
3.577
3.531
3.486
3.443
3.402
3.362
3.325
3.291
3.259
3.23
4.334
4.329
4.321
4.309
4.293
4.274
4.253
4.227
4.2
4.169
4.136
4.1
4.063
4.023
3.982
3.94
3.897
3.854
3.81
3.765
3.721
3.678
3.635
3.593
3.552
3.513
3.475
3.439
3.405
3.374
3.344
3.318
4.311
4.307
4.3
4.289
4.276
4.259
4.24
4.218
4.193
4.166
4.137
4.105
4.072
4.037
4.001
3.963
3.925
3.886
3.846
3.807
3.767
3.728
3.69
3.652
3.615