/*--------------------------------*- C++ -*----------------------------------*\
  =========                 |
  \\      /  F ield         | OpenFOAM: The Open Source CFD Toolbox
   \\    /   O peration     | Website:  https://openfoam.org
    \\  /    A nd           | Version:  6
     \\/     M anipulation  |
\*---------------------------------------------------------------------------*/
FoamFile
{
    version     2.0;
    format      ascii;
    class       volScalarField;
    location    "10";
    object      Umag;
}
// * * * * * * * * * * * * * * * * * * * * * * * * * * * * * * * * * * * * * //

dimensions      [0 0 0 0 0 0 0];

internalField   nonuniform List<scalar> 
16128
(
8.241e-06
1.277e-05
1.343e-05
1.359e-05
1.371e-05
1.384e-05
1.401e-05
1.42e-05
1.442e-05
1.466e-05
1.494e-05
1.524e-05
1.557e-05
1.592e-05
1.63e-05
1.67e-05
1.713e-05
1.757e-05
1.804e-05
1.852e-05
1.901e-05
1.952e-05
2.003e-05
2.056e-05
2.108e-05
2.16e-05
2.211e-05
2.262e-05
2.31e-05
2.357e-05
2.402e-05
2.443e-05
8.241e-06
1.277e-05
1.343e-05
1.359e-05
1.37e-05
1.384e-05
1.4e-05
1.42e-05
1.442e-05
1.466e-05
1.494e-05
1.524e-05
1.557e-05
1.592e-05
1.63e-05
1.67e-05
1.712e-05
1.757e-05
1.803e-05
1.851e-05
1.901e-05
1.951e-05
2.003e-05
2.055e-05
2.107e-05
2.159e-05
2.21e-05
2.261e-05
2.309e-05
2.356e-05
2.401e-05
2.442e-05
8.24e-06
1.277e-05
1.343e-05
1.359e-05
1.37e-05
1.384e-05
1.4e-05
1.419e-05
1.441e-05
1.466e-05
1.493e-05
1.523e-05
1.556e-05
1.592e-05
1.629e-05
1.669e-05
1.712e-05
1.756e-05
1.802e-05
1.85e-05
1.9e-05
1.95e-05
2.002e-05
2.054e-05
2.106e-05
2.158e-05
2.209e-05
2.259e-05
2.308e-05
2.354e-05
2.399e-05
2.44e-05
8.238e-06
1.276e-05
1.343e-05
1.358e-05
1.37e-05
1.384e-05
1.4e-05
1.419e-05
1.441e-05
1.466e-05
1.493e-05
1.523e-05
1.556e-05
1.591e-05
1.629e-05
1.669e-05
1.711e-05
1.755e-05
1.801e-05
1.849e-05
1.898e-05
1.949e-05
2e-05
2.052e-05
2.104e-05
2.156e-05
2.207e-05
2.257e-05
2.305e-05
2.352e-05
2.396e-05
2.437e-05
8.223e-06
1.274e-05
1.34e-05
1.356e-05
1.367e-05
1.381e-05
1.398e-05
1.417e-05
1.439e-05
1.464e-05
1.492e-05
1.522e-05
1.555e-05
1.591e-05
1.629e-05
1.669e-05
1.712e-05
1.757e-05
1.803e-05
1.852e-05
1.902e-05
1.953e-05
2.005e-05
2.058e-05
2.11e-05
2.163e-05
2.215e-05
2.266e-05
2.315e-05
2.362e-05
2.407e-05
2.449e-05
8.222e-06
1.274e-05
1.34e-05
1.356e-05
1.367e-05
1.381e-05
1.398e-05
1.417e-05
1.439e-05
1.464e-05
1.491e-05
1.522e-05
1.555e-05
1.59e-05
1.628e-05
1.669e-05
1.712e-05
1.756e-05
1.803e-05
1.852e-05
1.901e-05
1.952e-05
2.004e-05
2.057e-05
2.11e-05
2.162e-05
2.214e-05
2.265e-05
2.314e-05
2.361e-05
2.406e-05
2.448e-05
8.221e-06
1.274e-05
1.34e-05
1.356e-05
1.367e-05
1.381e-05
1.397e-05
1.417e-05
1.439e-05
1.463e-05
1.491e-05
1.521e-05
1.554e-05
1.59e-05
1.628e-05
1.668e-05
1.711e-05
1.756e-05
1.802e-05
1.851e-05
1.9e-05
1.951e-05
2.003e-05
2.056e-05
2.108e-05
2.161e-05
2.212e-05
2.263e-05
2.312e-05
2.359e-05
2.404e-05
2.446e-05
8.22e-06
1.273e-05
1.34e-05
1.355e-05
1.367e-05
1.381e-05
1.397e-05
1.416e-05
1.438e-05
1.463e-05
1.491e-05
1.521e-05
1.554e-05
1.589e-05
1.627e-05
1.667e-05
1.71e-05
1.755e-05
1.801e-05
1.849e-05
1.899e-05
1.95e-05
2.002e-05
2.054e-05
2.106e-05
2.159e-05
2.21e-05
2.261e-05
2.31e-05
2.357e-05
2.401e-05
2.443e-05
8.187e-06
1.268e-05
1.335e-05
1.35e-05
1.362e-05
1.376e-05
1.392e-05
1.412e-05
1.434e-05
1.459e-05
1.487e-05
1.518e-05
1.551e-05
1.587e-05
1.626e-05
1.667e-05
1.71e-05
1.756e-05
1.803e-05
1.853e-05
1.903e-05
1.955e-05
2.008e-05
2.061e-05
2.115e-05
2.169e-05
2.221e-05
2.273e-05
2.323e-05
2.372e-05
2.418e-05
2.46e-05
8.186e-06
1.268e-05
1.334e-05
1.35e-05
1.362e-05
1.376e-05
1.392e-05
1.412e-05
1.434e-05
1.459e-05
1.487e-05
1.518e-05
1.551e-05
1.587e-05
1.626e-05
1.667e-05
1.71e-05
1.756e-05
1.803e-05
1.852e-05
1.903e-05
1.955e-05
2.007e-05
2.061e-05
2.114e-05
2.168e-05
2.221e-05
2.272e-05
2.322e-05
2.371e-05
2.416e-05
2.459e-05
8.185e-06
1.268e-05
1.334e-05
1.35e-05
1.362e-05
1.375e-05
1.392e-05
1.411e-05
1.434e-05
1.459e-05
1.487e-05
1.517e-05
1.551e-05
1.587e-05
1.625e-05
1.666e-05
1.709e-05
1.755e-05
1.802e-05
1.851e-05
1.902e-05
1.953e-05
2.006e-05
2.059e-05
2.113e-05
2.166e-05
2.219e-05
2.27e-05
2.321e-05
2.369e-05
2.414e-05
2.457e-05
8.184e-06
1.268e-05
1.334e-05
1.35e-05
1.361e-05
1.375e-05
1.392e-05
1.411e-05
1.433e-05
1.458e-05
1.486e-05
1.517e-05
1.55e-05
1.586e-05
1.624e-05
1.665e-05
1.708e-05
1.754e-05
1.801e-05
1.85e-05
1.9e-05
1.952e-05
2.004e-05
2.058e-05
2.111e-05
2.164e-05
2.216e-05
2.268e-05
2.318e-05
2.366e-05
2.411e-05
2.454e-05
8.134e-06
1.26e-05
1.326e-05
1.342e-05
1.354e-05
1.368e-05
1.384e-05
1.404e-05
1.427e-05
1.453e-05
1.481e-05
1.512e-05
1.546e-05
1.583e-05
1.622e-05
1.664e-05
1.708e-05
1.755e-05
1.803e-05
1.853e-05
1.905e-05
1.958e-05
2.012e-05
2.067e-05
2.122e-05
2.177e-05
2.231e-05
2.284e-05
2.336e-05
2.386e-05
2.433e-05
2.477e-05
8.134e-06
1.26e-05
1.326e-05
1.342e-05
1.353e-05
1.367e-05
1.384e-05
1.404e-05
1.427e-05
1.452e-05
1.481e-05
1.512e-05
1.546e-05
1.583e-05
1.622e-05
1.664e-05
1.708e-05
1.754e-05
1.803e-05
1.853e-05
1.905e-05
1.958e-05
2.012e-05
2.066e-05
2.121e-05
2.176e-05
2.23e-05
2.283e-05
2.335e-05
2.385e-05
2.432e-05
2.476e-05
8.132e-06
1.26e-05
1.326e-05
1.341e-05
1.353e-05
1.367e-05
1.384e-05
1.404e-05
1.427e-05
1.452e-05
1.48e-05
1.512e-05
1.546e-05
1.582e-05
1.621e-05
1.663e-05
1.707e-05
1.754e-05
1.802e-05
1.852e-05
1.904e-05
1.957e-05
2.01e-05
2.065e-05
2.12e-05
2.174e-05
2.228e-05
2.281e-05
2.333e-05
2.382e-05
2.429e-05
2.473e-05
8.131e-06
1.26e-05
1.325e-05
1.341e-05
1.353e-05
1.367e-05
1.384e-05
1.404e-05
1.426e-05
1.452e-05
1.48e-05
1.511e-05
1.545e-05
1.581e-05
1.621e-05
1.662e-05
1.706e-05
1.752e-05
1.801e-05
1.85e-05
1.902e-05
1.955e-05
2.009e-05
2.063e-05
2.117e-05
2.172e-05
2.226e-05
2.278e-05
2.33e-05
2.379e-05
2.426e-05
2.469e-05
8.064e-06
1.249e-05
1.315e-05
1.33e-05
1.343e-05
1.357e-05
1.374e-05
1.394e-05
1.418e-05
1.444e-05
1.473e-05
1.505e-05
1.54e-05
1.577e-05
1.617e-05
1.66e-05
1.706e-05
1.753e-05
1.803e-05
1.855e-05
1.908e-05
1.963e-05
2.018e-05
2.075e-05
2.132e-05
2.188e-05
2.244e-05
2.299e-05
2.353e-05
2.404e-05
2.453e-05
2.499e-05
8.064e-06
1.249e-05
1.315e-05
1.33e-05
1.343e-05
1.357e-05
1.374e-05
1.394e-05
1.417e-05
1.444e-05
1.473e-05
1.505e-05
1.539e-05
1.577e-05
1.617e-05
1.66e-05
1.705e-05
1.753e-05
1.802e-05
1.854e-05
1.907e-05
1.962e-05
2.018e-05
2.074e-05
2.131e-05
2.187e-05
2.243e-05
2.298e-05
2.352e-05
2.403e-05
2.452e-05
2.498e-05
8.063e-06
1.249e-05
1.315e-05
1.33e-05
1.342e-05
1.357e-05
1.374e-05
1.394e-05
1.417e-05
1.443e-05
1.472e-05
1.504e-05
1.539e-05
1.576e-05
1.616e-05
1.659e-05
1.704e-05
1.752e-05
1.801e-05
1.853e-05
1.906e-05
1.961e-05
2.016e-05
2.072e-05
2.129e-05
2.185e-05
2.241e-05
2.296e-05
2.349e-05
2.4e-05
2.449e-05
2.495e-05
8.061e-06
1.249e-05
1.314e-05
1.33e-05
1.342e-05
1.356e-05
1.373e-05
1.394e-05
1.417e-05
1.443e-05
1.472e-05
1.503e-05
1.538e-05
1.575e-05
1.616e-05
1.658e-05
1.703e-05
1.751e-05
1.8e-05
1.851e-05
1.904e-05
1.959e-05
2.014e-05
2.07e-05
2.126e-05
2.183e-05
2.238e-05
2.293e-05
2.346e-05
2.397e-05
2.445e-05
2.49e-05
7.978e-06
1.236e-05
1.301e-05
1.317e-05
1.329e-05
1.344e-05
1.361e-05
1.382e-05
1.406e-05
1.433e-05
1.463e-05
1.495e-05
1.531e-05
1.57e-05
1.611e-05
1.655e-05
1.702e-05
1.751e-05
1.803e-05
1.856e-05
1.911e-05
1.968e-05
2.026e-05
2.085e-05
2.144e-05
2.203e-05
2.261e-05
2.319e-05
2.374e-05
2.428e-05
2.479e-05
2.527e-05
7.977e-06
1.236e-05
1.301e-05
1.317e-05
1.329e-05
1.344e-05
1.361e-05
1.382e-05
1.406e-05
1.432e-05
1.462e-05
1.495e-05
1.531e-05
1.569e-05
1.611e-05
1.655e-05
1.702e-05
1.751e-05
1.802e-05
1.856e-05
1.911e-05
1.967e-05
2.025e-05
2.084e-05
2.143e-05
2.202e-05
2.26e-05
2.317e-05
2.373e-05
2.427e-05
2.478e-05
2.525e-05
7.976e-06
1.236e-05
1.301e-05
1.316e-05
1.329e-05
1.343e-05
1.361e-05
1.382e-05
1.405e-05
1.432e-05
1.462e-05
1.495e-05
1.53e-05
1.569e-05
1.61e-05
1.654e-05
1.701e-05
1.75e-05
1.801e-05
1.854e-05
1.909e-05
1.966e-05
2.023e-05
2.082e-05
2.141e-05
2.199e-05
2.258e-05
2.315e-05
2.37e-05
2.424e-05
2.474e-05
2.522e-05
7.974e-06
1.235e-05
1.3e-05
1.316e-05
1.328e-05
1.343e-05
1.361e-05
1.381e-05
1.405e-05
1.432e-05
1.461e-05
1.494e-05
1.53e-05
1.568e-05
1.609e-05
1.653e-05
1.7e-05
1.748e-05
1.8e-05
1.853e-05
1.907e-05
1.964e-05
2.021e-05
2.079e-05
2.138e-05
2.196e-05
2.254e-05
2.311e-05
2.366e-05
2.419e-05
2.47e-05
2.517e-05
7.874e-06
1.22e-05
1.284e-05
1.3e-05
1.313e-05
1.328e-05
1.346e-05
1.367e-05
1.392e-05
1.42e-05
1.45e-05
1.484e-05
1.521e-05
1.561e-05
1.604e-05
1.65e-05
1.698e-05
1.749e-05
1.803e-05
1.858e-05
1.916e-05
1.975e-05
2.035e-05
2.097e-05
2.158e-05
2.22e-05
2.282e-05
2.342e-05
2.401e-05
2.457e-05
2.511e-05
2.562e-05
7.874e-06
1.22e-05
1.284e-05
1.3e-05
1.313e-05
1.328e-05
1.346e-05
1.367e-05
1.392e-05
1.419e-05
1.45e-05
1.484e-05
1.521e-05
1.561e-05
1.604e-05
1.649e-05
1.698e-05
1.749e-05
1.802e-05
1.858e-05
1.915e-05
1.974e-05
2.034e-05
2.096e-05
2.157e-05
2.219e-05
2.28e-05
2.34e-05
2.399e-05
2.456e-05
2.509e-05
2.56e-05
7.872e-06
1.22e-05
1.284e-05
1.3e-05
1.312e-05
1.328e-05
1.346e-05
1.367e-05
1.391e-05
1.419e-05
1.45e-05
1.483e-05
1.52e-05
1.56e-05
1.603e-05
1.648e-05
1.697e-05
1.748e-05
1.801e-05
1.856e-05
1.913e-05
1.972e-05
2.032e-05
2.093e-05
2.155e-05
2.216e-05
2.277e-05
2.337e-05
2.396e-05
2.452e-05
2.506e-05
2.556e-05
7.871e-06
1.219e-05
1.284e-05
1.299e-05
1.312e-05
1.327e-05
1.345e-05
1.366e-05
1.391e-05
1.418e-05
1.449e-05
1.483e-05
1.519e-05
1.559e-05
1.602e-05
1.647e-05
1.695e-05
1.746e-05
1.799e-05
1.854e-05
1.911e-05
1.97e-05
2.03e-05
2.09e-05
2.152e-05
2.213e-05
2.273e-05
2.333e-05
2.391e-05
2.447e-05
2.5e-05
2.55e-05
7.753e-06
1.201e-05
1.265e-05
1.281e-05
1.294e-05
1.309e-05
1.328e-05
1.35e-05
1.376e-05
1.404e-05
1.436e-05
1.471e-05
1.509e-05
1.551e-05
1.595e-05
1.643e-05
1.694e-05
1.747e-05
1.803e-05
1.861e-05
1.921e-05
1.983e-05
2.047e-05
2.111e-05
2.176e-05
2.241e-05
2.306e-05
2.37e-05
2.433e-05
2.493e-05
2.55e-05
2.604e-05
7.753e-06
1.201e-05
1.265e-05
1.281e-05
1.294e-05
1.309e-05
1.328e-05
1.35e-05
1.375e-05
1.404e-05
1.436e-05
1.471e-05
1.509e-05
1.551e-05
1.595e-05
1.643e-05
1.693e-05
1.746e-05
1.802e-05
1.86e-05
1.92e-05
1.982e-05
2.045e-05
2.11e-05
2.175e-05
2.24e-05
2.305e-05
2.368e-05
2.431e-05
2.491e-05
2.548e-05
2.601e-05
7.752e-06
1.201e-05
1.264e-05
1.28e-05
1.294e-05
1.309e-05
1.328e-05
1.35e-05
1.375e-05
1.403e-05
1.435e-05
1.47e-05
1.508e-05
1.55e-05
1.594e-05
1.642e-05
1.692e-05
1.745e-05
1.8e-05
1.858e-05
1.918e-05
1.98e-05
2.043e-05
2.107e-05
2.172e-05
2.237e-05
2.302e-05
2.365e-05
2.427e-05
2.487e-05
2.543e-05
2.597e-05
7.75e-06
1.201e-05
1.264e-05
1.28e-05
1.293e-05
1.309e-05
1.327e-05
1.349e-05
1.374e-05
1.403e-05
1.435e-05
1.469e-05
1.507e-05
1.549e-05
1.593e-05
1.64e-05
1.69e-05
1.743e-05
1.798e-05
1.856e-05
1.916e-05
1.977e-05
2.04e-05
2.104e-05
2.168e-05
2.233e-05
2.297e-05
2.36e-05
2.421e-05
2.481e-05
2.537e-05
2.59e-05
7.616e-06
1.18e-05
1.243e-05
1.259e-05
1.272e-05
1.288e-05
1.308e-05
1.331e-05
1.357e-05
1.387e-05
1.42e-05
1.456e-05
1.496e-05
1.539e-05
1.586e-05
1.636e-05
1.688e-05
1.744e-05
1.803e-05
1.864e-05
1.927e-05
1.993e-05
2.06e-05
2.128e-05
2.197e-05
2.267e-05
2.336e-05
2.404e-05
2.47e-05
2.535e-05
2.596e-05
2.654e-05
7.615e-06
1.18e-05
1.242e-05
1.259e-05
1.272e-05
1.288e-05
1.308e-05
1.331e-05
1.357e-05
1.386e-05
1.419e-05
1.456e-05
1.496e-05
1.539e-05
1.585e-05
1.635e-05
1.688e-05
1.743e-05
1.802e-05
1.863e-05
1.926e-05
1.992e-05
2.059e-05
2.127e-05
2.196e-05
2.265e-05
2.334e-05
2.402e-05
2.468e-05
2.532e-05
2.593e-05
2.651e-05
7.614e-06
1.18e-05
1.242e-05
1.258e-05
1.272e-05
1.288e-05
1.307e-05
1.33e-05
1.356e-05
1.386e-05
1.419e-05
1.455e-05
1.495e-05
1.538e-05
1.584e-05
1.634e-05
1.686e-05
1.742e-05
1.8e-05
1.861e-05
1.924e-05
1.989e-05
2.056e-05
2.124e-05
2.193e-05
2.261e-05
2.33e-05
2.398e-05
2.464e-05
2.527e-05
2.588e-05
2.645e-05
7.612e-06
1.179e-05
1.242e-05
1.258e-05
1.272e-05
1.288e-05
1.307e-05
1.33e-05
1.356e-05
1.385e-05
1.418e-05
1.454e-05
1.494e-05
1.537e-05
1.583e-05
1.632e-05
1.685e-05
1.74e-05
1.798e-05
1.859e-05
1.921e-05
1.986e-05
2.052e-05
2.12e-05
2.188e-05
2.256e-05
2.325e-05
2.392e-05
2.457e-05
2.52e-05
2.581e-05
2.638e-05
7.461e-06
1.156e-05
1.218e-05
1.234e-05
1.248e-05
1.265e-05
1.285e-05
1.309e-05
1.336e-05
1.367e-05
1.401e-05
1.439e-05
1.481e-05
1.526e-05
1.575e-05
1.627e-05
1.683e-05
1.741e-05
1.803e-05
1.868e-05
1.935e-05
2.004e-05
2.076e-05
2.148e-05
2.222e-05
2.296e-05
2.37e-05
2.443e-05
2.515e-05
2.584e-05
2.65e-05
2.713e-05
7.46e-06
1.156e-05
1.218e-05
1.234e-05
1.248e-05
1.265e-05
1.285e-05
1.309e-05
1.336e-05
1.367e-05
1.401e-05
1.439e-05
1.481e-05
1.526e-05
1.574e-05
1.626e-05
1.682e-05
1.74e-05
1.802e-05
1.867e-05
1.934e-05
2.003e-05
2.074e-05
2.147e-05
2.22e-05
2.294e-05
2.368e-05
2.441e-05
2.512e-05
2.581e-05
2.647e-05
2.709e-05
7.459e-06
1.156e-05
1.217e-05
1.234e-05
1.248e-05
1.264e-05
1.284e-05
1.308e-05
1.335e-05
1.366e-05
1.4e-05
1.438e-05
1.48e-05
1.525e-05
1.573e-05
1.625e-05
1.68e-05
1.739e-05
1.8e-05
1.865e-05
1.931e-05
2e-05
2.071e-05
2.143e-05
2.217e-05
2.29e-05
2.363e-05
2.436e-05
2.507e-05
2.576e-05
2.641e-05
2.703e-05
7.457e-06
1.155e-05
1.217e-05
1.233e-05
1.247e-05
1.264e-05
1.284e-05
1.308e-05
1.335e-05
1.365e-05
1.4e-05
1.437e-05
1.479e-05
1.523e-05
1.572e-05
1.623e-05
1.678e-05
1.737e-05
1.798e-05
1.861e-05
1.928e-05
1.996e-05
2.067e-05
2.138e-05
2.211e-05
2.284e-05
2.357e-05
2.429e-05
2.499e-05
2.567e-05
2.632e-05
2.693e-05
7.29e-06
1.13e-05
1.19e-05
1.207e-05
1.221e-05
1.239e-05
1.26e-05
1.284e-05
1.313e-05
1.345e-05
1.381e-05
1.421e-05
1.464e-05
1.512e-05
1.563e-05
1.618e-05
1.676e-05
1.738e-05
1.804e-05
1.872e-05
1.944e-05
2.018e-05
2.094e-05
2.172e-05
2.251e-05
2.331e-05
2.41e-05
2.489e-05
2.567e-05
2.642e-05
2.714e-05
2.782e-05
7.289e-06
1.13e-05
1.19e-05
1.207e-05
1.221e-05
1.238e-05
1.259e-05
1.284e-05
1.312e-05
1.345e-05
1.381e-05
1.42e-05
1.464e-05
1.511e-05
1.562e-05
1.617e-05
1.675e-05
1.737e-05
1.803e-05
1.871e-05
1.942e-05
2.016e-05
2.092e-05
2.17e-05
2.249e-05
2.328e-05
2.408e-05
2.486e-05
2.564e-05
2.639e-05
2.71e-05
2.778e-05
7.287e-06
1.129e-05
1.19e-05
1.206e-05
1.221e-05
1.238e-05
1.259e-05
1.284e-05
1.312e-05
1.344e-05
1.38e-05
1.42e-05
1.463e-05
1.51e-05
1.561e-05
1.616e-05
1.674e-05
1.736e-05
1.801e-05
1.869e-05
1.94e-05
2.013e-05
2.089e-05
2.166e-05
2.244e-05
2.323e-05
2.402e-05
2.481e-05
2.557e-05
2.632e-05
2.703e-05
2.77e-05
7.285e-06
1.129e-05
1.189e-05
1.206e-05
1.22e-05
1.238e-05
1.258e-05
1.283e-05
1.311e-05
1.343e-05
1.379e-05
1.418e-05
1.462e-05
1.509e-05
1.559e-05
1.614e-05
1.672e-05
1.733e-05
1.797e-05
1.865e-05
1.936e-05
2.008e-05
2.084e-05
2.16e-05
2.238e-05
2.316e-05
2.395e-05
2.472e-05
2.548e-05
2.622e-05
2.692e-05
2.759e-05
7.101e-06
1.101e-05
1.16e-05
1.177e-05
1.192e-05
1.21e-05
1.232e-05
1.257e-05
1.287e-05
1.321e-05
1.358e-05
1.4e-05
1.446e-05
1.496e-05
1.55e-05
1.608e-05
1.67e-05
1.735e-05
1.805e-05
1.878e-05
1.954e-05
2.033e-05
2.115e-05
2.199e-05
2.284e-05
2.371e-05
2.457e-05
2.543e-05
2.628e-05
2.71e-05
2.789e-05
2.863e-05
7.101e-06
1.1e-05
1.16e-05
1.177e-05
1.192e-05
1.21e-05
1.232e-05
1.257e-05
1.287e-05
1.32e-05
1.358e-05
1.4e-05
1.445e-05
1.495e-05
1.549e-05
1.607e-05
1.669e-05
1.734e-05
1.804e-05
1.876e-05
1.952e-05
2.031e-05
2.113e-05
2.197e-05
2.282e-05
2.368e-05
2.454e-05
2.54e-05
2.624e-05
2.706e-05
2.784e-05
2.859e-05
7.099e-06
1.1e-05
1.16e-05
1.176e-05
1.191e-05
1.209e-05
1.231e-05
1.257e-05
1.286e-05
1.32e-05
1.357e-05
1.399e-05
1.444e-05
1.494e-05
1.548e-05
1.605e-05
1.667e-05
1.732e-05
1.801e-05
1.874e-05
1.949e-05
2.028e-05
2.109e-05
2.192e-05
2.277e-05
2.362e-05
2.448e-05
2.533e-05
2.616e-05
2.698e-05
2.775e-05
2.849e-05
7.097e-06
1.1e-05
1.159e-05
1.176e-05
1.191e-05
1.209e-05
1.23e-05
1.256e-05
1.285e-05
1.319e-05
1.356e-05
1.398e-05
1.443e-05
1.492e-05
1.546e-05
1.603e-05
1.664e-05
1.729e-05
1.798e-05
1.869e-05
1.945e-05
2.023e-05
2.103e-05
2.185e-05
2.269e-05
2.354e-05
2.439e-05
2.523e-05
2.605e-05
2.686e-05
2.763e-05
2.835e-05
6.897e-06
1.069e-05
1.127e-05
1.144e-05
1.16e-05
1.179e-05
1.201e-05
1.228e-05
1.259e-05
1.295e-05
1.334e-05
1.378e-05
1.426e-05
1.478e-05
1.535e-05
1.597e-05
1.662e-05
1.732e-05
1.806e-05
1.885e-05
1.966e-05
2.052e-05
2.14e-05
2.231e-05
2.323e-05
2.417e-05
2.512e-05
2.606e-05
2.699e-05
2.789e-05
2.876e-05
2.959e-05
6.896e-06
1.069e-05
1.127e-05
1.144e-05
1.16e-05
1.178e-05
1.201e-05
1.228e-05
1.259e-05
1.294e-05
1.334e-05
1.377e-05
1.425e-05
1.478e-05
1.535e-05
1.596e-05
1.661e-05
1.731e-05
1.805e-05
1.883e-05
1.964e-05
2.049e-05
2.137e-05
2.228e-05
2.32e-05
2.414e-05
2.508e-05
2.602e-05
2.694e-05
2.784e-05
2.871e-05
2.953e-05
6.894e-06
1.069e-05
1.127e-05
1.144e-05
1.159e-05
1.178e-05
1.201e-05
1.227e-05
1.258e-05
1.293e-05
1.333e-05
1.376e-05
1.424e-05
1.476e-05
1.533e-05
1.594e-05
1.659e-05
1.729e-05
1.802e-05
1.88e-05
1.961e-05
2.045e-05
2.132e-05
2.222e-05
2.314e-05
2.407e-05
2.5e-05
2.593e-05
2.685e-05
2.774e-05
2.86e-05
2.941e-05
6.892e-06
1.068e-05
1.126e-05
1.143e-05
1.159e-05
1.177e-05
1.2e-05
1.227e-05
1.257e-05
1.292e-05
1.331e-05
1.375e-05
1.422e-05
1.474e-05
1.531e-05
1.591e-05
1.656e-05
1.725e-05
1.798e-05
1.875e-05
1.955e-05
2.039e-05
2.125e-05
2.214e-05
2.305e-05
2.397e-05
2.489e-05
2.581e-05
2.672e-05
2.76e-05
2.844e-05
2.925e-05
6.676e-06
1.035e-05
1.092e-05
1.109e-05
1.125e-05
1.145e-05
1.169e-05
1.197e-05
1.229e-05
1.266e-05
1.307e-05
1.353e-05
1.404e-05
1.46e-05
1.52e-05
1.585e-05
1.655e-05
1.729e-05
1.809e-05
1.892e-05
1.981e-05
2.073e-05
2.168e-05
2.267e-05
2.368e-05
2.471e-05
2.575e-05
2.678e-05
2.781e-05
2.881e-05
2.978e-05
3.07e-05
6.675e-06
1.035e-05
1.091e-05
1.109e-05
1.125e-05
1.145e-05
1.168e-05
1.196e-05
1.229e-05
1.266e-05
1.307e-05
1.353e-05
1.404e-05
1.459e-05
1.519e-05
1.584e-05
1.654e-05
1.728e-05
1.807e-05
1.891e-05
1.978e-05
2.07e-05
2.165e-05
2.264e-05
2.364e-05
2.467e-05
2.57e-05
2.673e-05
2.775e-05
2.875e-05
2.972e-05
3.063e-05
6.673e-06
1.034e-05
1.091e-05
1.108e-05
1.125e-05
1.144e-05
1.168e-05
1.196e-05
1.228e-05
1.265e-05
1.306e-05
1.352e-05
1.402e-05
1.457e-05
1.517e-05
1.582e-05
1.651e-05
1.725e-05
1.804e-05
1.887e-05
1.974e-05
2.065e-05
2.16e-05
2.257e-05
2.357e-05
2.459e-05
2.561e-05
2.663e-05
2.764e-05
2.863e-05
2.959e-05
3.049e-05
6.67e-06
1.034e-05
1.091e-05
1.108e-05
1.124e-05
1.143e-05
1.167e-05
1.195e-05
1.227e-05
1.264e-05
1.305e-05
1.35e-05
1.4e-05
1.455e-05
1.515e-05
1.579e-05
1.648e-05
1.721e-05
1.799e-05
1.881e-05
1.967e-05
2.058e-05
2.151e-05
2.248e-05
2.346e-05
2.447e-05
2.548e-05
2.649e-05
2.748e-05
2.846e-05
2.94e-05
3.029e-05
6.439e-06
9.983e-06
1.054e-05
1.071e-05
1.088e-05
1.108e-05
1.133e-05
1.163e-05
1.197e-05
1.235e-05
1.279e-05
1.327e-05
1.381e-05
1.439e-05
1.503e-05
1.572e-05
1.647e-05
1.727e-05
1.812e-05
1.902e-05
1.997e-05
2.097e-05
2.201e-05
2.309e-05
2.42e-05
2.533e-05
2.648e-05
2.763e-05
2.877e-05
2.989e-05
3.098e-05
3.201e-05
6.438e-06
9.981e-06
1.053e-05
1.071e-05
1.088e-05
1.108e-05
1.133e-05
1.162e-05
1.196e-05
1.235e-05
1.278e-05
1.327e-05
1.38e-05
1.439e-05
1.502e-05
1.571e-05
1.645e-05
1.725e-05
1.81e-05
1.9e-05
1.994e-05
2.094e-05
2.197e-05
2.305e-05
2.415e-05
2.528e-05
2.642e-05
2.757e-05
2.87e-05
2.982e-05
3.09e-05
3.192e-05
6.436e-06
9.978e-06
1.053e-05
1.071e-05
1.087e-05
1.108e-05
1.132e-05
1.162e-05
1.196e-05
1.234e-05
1.277e-05
1.325e-05
1.379e-05
1.437e-05
1.5e-05
1.569e-05
1.643e-05
1.722e-05
1.806e-05
1.895e-05
1.989e-05
2.088e-05
2.191e-05
2.297e-05
2.407e-05
2.518e-05
2.631e-05
2.745e-05
2.857e-05
2.967e-05
3.074e-05
3.175e-05
6.433e-06
9.974e-06
1.053e-05
1.07e-05
1.087e-05
1.107e-05
1.132e-05
1.161e-05
1.194e-05
1.233e-05
1.276e-05
1.324e-05
1.376e-05
1.434e-05
1.497e-05
1.565e-05
1.639e-05
1.717e-05
1.8e-05
1.889e-05
1.982e-05
2.079e-05
2.181e-05
2.286e-05
2.394e-05
2.504e-05
2.615e-05
2.727e-05
2.837e-05
2.946e-05
3.05e-05
3.15e-05
6.187e-06
9.594e-06
1.013e-05
1.031e-05
1.048e-05
1.07e-05
1.096e-05
1.126e-05
1.162e-05
1.203e-05
1.248e-05
1.299e-05
1.356e-05
1.418e-05
1.486e-05
1.559e-05
1.639e-05
1.724e-05
1.816e-05
1.913e-05
2.016e-05
2.125e-05
2.239e-05
2.357e-05
2.479e-05
2.605e-05
2.733e-05
2.861e-05
2.989e-05
3.115e-05
3.238e-05
3.355e-05
6.185e-06
9.592e-06
1.013e-05
1.031e-05
1.048e-05
1.069e-05
1.095e-05
1.126e-05
1.162e-05
1.202e-05
1.248e-05
1.299e-05
1.355e-05
1.417e-05
1.485e-05
1.558e-05
1.637e-05
1.722e-05
1.814e-05
1.91e-05
2.013e-05
2.121e-05
2.235e-05
2.352e-05
2.474e-05
2.599e-05
2.726e-05
2.854e-05
2.981e-05
3.106e-05
3.228e-05
3.344e-05
6.183e-06
9.589e-06
1.013e-05
1.03e-05
1.048e-05
1.069e-05
1.095e-05
1.125e-05
1.161e-05
1.201e-05
1.247e-05
1.297e-05
1.353e-05
1.415e-05
1.482e-05
1.555e-05
1.634e-05
1.719e-05
1.809e-05
1.905e-05
2.007e-05
2.114e-05
2.227e-05
2.343e-05
2.464e-05
2.587e-05
2.713e-05
2.839e-05
2.965e-05
3.088e-05
3.208e-05
3.323e-05
6.181e-06
9.584e-06
1.012e-05
1.03e-05
1.047e-05
1.068e-05
1.094e-05
1.124e-05
1.16e-05
1.2e-05
1.245e-05
1.295e-05
1.351e-05
1.412e-05
1.479e-05
1.551e-05
1.629e-05
1.713e-05
1.803e-05
1.898e-05
1.998e-05
2.104e-05
2.215e-05
2.33e-05
2.449e-05
2.57e-05
2.693e-05
2.817e-05
2.941e-05
3.062e-05
3.18e-05
3.292e-05
5.92e-06
9.182e-06
9.702e-06
9.883e-06
1.006e-05
1.029e-05
1.056e-05
1.088e-05
1.125e-05
1.168e-05
1.216e-05
1.27e-05
1.329e-05
1.395e-05
1.467e-05
1.546e-05
1.631e-05
1.722e-05
1.821e-05
1.926e-05
2.039e-05
2.157e-05
2.282e-05
2.413e-05
2.548e-05
2.688e-05
2.831e-05
2.976e-05
3.12e-05
3.264e-05
3.403e-05
3.537e-05
5.919e-06
9.18e-06
9.7e-06
9.881e-06
1.006e-05
1.028e-05
1.055e-05
1.088e-05
1.125e-05
1.167e-05
1.215e-05
1.269e-05
1.328e-05
1.394e-05
1.466e-05
1.544e-05
1.629e-05
1.72e-05
1.818e-05
1.923e-05
2.035e-05
2.153e-05
2.277e-05
2.407e-05
2.542e-05
2.681e-05
2.823e-05
2.966e-05
3.11e-05
3.252e-05
3.391e-05
3.523e-05
5.916e-06
9.177e-06
9.696e-06
9.877e-06
1.006e-05
1.028e-05
1.055e-05
1.087e-05
1.124e-05
1.166e-05
1.214e-05
1.267e-05
1.327e-05
1.392e-05
1.463e-05
1.541e-05
1.625e-05
1.716e-05
1.813e-05
1.917e-05
2.028e-05
2.145e-05
2.268e-05
2.396e-05
2.53e-05
2.667e-05
2.807e-05
2.949e-05
3.09e-05
3.23e-05
3.367e-05
3.497e-05
5.913e-06
9.172e-06
9.691e-06
9.871e-06
1.005e-05
1.027e-05
1.054e-05
1.086e-05
1.122e-05
1.165e-05
1.212e-05
1.265e-05
1.324e-05
1.388e-05
1.459e-05
1.536e-05
1.62e-05
1.709e-05
1.806e-05
1.908e-05
2.018e-05
2.133e-05
2.254e-05
2.38e-05
2.511e-05
2.646e-05
2.784e-05
2.923e-05
3.061e-05
3.198e-05
3.332e-05
3.459e-05
5.639e-06
8.749e-06
9.251e-06
9.435e-06
9.622e-06
9.855e-06
1.014e-05
1.047e-05
1.086e-05
1.131e-05
1.182e-05
1.238e-05
1.301e-05
1.371e-05
1.447e-05
1.531e-05
1.622e-05
1.721e-05
1.828e-05
1.942e-05
2.064e-05
2.195e-05
2.332e-05
2.477e-05
2.628e-05
2.785e-05
2.946e-05
3.11e-05
3.274e-05
3.438e-05
3.598e-05
3.753e-05
5.638e-06
8.747e-06
9.249e-06
9.433e-06
9.62e-06
9.852e-06
1.013e-05
1.047e-05
1.086e-05
1.13e-05
1.181e-05
1.237e-05
1.3e-05
1.37e-05
1.446e-05
1.529e-05
1.62e-05
1.718e-05
1.825e-05
1.938e-05
2.06e-05
2.19e-05
2.326e-05
2.47e-05
2.62e-05
2.776e-05
2.936e-05
3.098e-05
3.262e-05
3.424e-05
3.583e-05
3.736e-05
5.636e-06
8.744e-06
9.245e-06
9.428e-06
9.615e-06
9.846e-06
1.013e-05
1.046e-05
1.085e-05
1.129e-05
1.179e-05
1.236e-05
1.298e-05
1.367e-05
1.443e-05
1.526e-05
1.616e-05
1.713e-05
1.819e-05
1.931e-05
2.052e-05
2.18e-05
2.315e-05
2.457e-05
2.606e-05
2.759e-05
2.916e-05
3.077e-05
3.237e-05
3.397e-05
3.553e-05
3.703e-05
5.632e-06
8.739e-06
9.239e-06
9.422e-06
9.608e-06
9.837e-06
1.012e-05
1.045e-05
1.083e-05
1.127e-05
1.177e-05
1.233e-05
1.295e-05
1.363e-05
1.439e-05
1.521e-05
1.61e-05
1.706e-05
1.81e-05
1.921e-05
2.04e-05
2.166e-05
2.299e-05
2.438e-05
2.584e-05
2.734e-05
2.888e-05
3.045e-05
3.202e-05
3.358e-05
3.51e-05
3.656e-05
5.345e-06
8.296e-06
8.779e-06
8.965e-06
9.16e-06
9.402e-06
9.696e-06
1.005e-05
1.045e-05
1.092e-05
1.145e-05
1.205e-05
1.272e-05
1.346e-05
1.427e-05
1.516e-05
1.614e-05
1.72e-05
1.836e-05
1.96e-05
2.094e-05
2.238e-05
2.39e-05
2.551e-05
2.721e-05
2.897e-05
3.08e-05
3.267e-05
3.456e-05
3.645e-05
3.83e-05
4.01e-05
5.344e-06
8.294e-06
8.777e-06
8.963e-06
9.157e-06
9.398e-06
9.693e-06
1.004e-05
1.045e-05
1.092e-05
1.145e-05
1.204e-05
1.27e-05
1.344e-05
1.425e-05
1.514e-05
1.612e-05
1.718e-05
1.832e-05
1.956e-05
2.089e-05
2.232e-05
2.383e-05
2.543e-05
2.711e-05
2.887e-05
3.068e-05
3.253e-05
3.44e-05
3.627e-05
3.811e-05
3.989e-05
5.342e-06
8.291e-06
8.773e-06
8.959e-06
9.152e-06
9.392e-06
9.685e-06
1.003e-05
1.044e-05
1.09e-05
1.143e-05
1.202e-05
1.268e-05
1.341e-05
1.422e-05
1.51e-05
1.607e-05
1.712e-05
1.825e-05
1.948e-05
2.08e-05
2.22e-05
2.37e-05
2.528e-05
2.693e-05
2.866e-05
3.044e-05
3.226e-05
3.41e-05
3.594e-05
3.774e-05
3.949e-05
5.339e-06
8.286e-06
8.767e-06
8.952e-06
9.144e-06
9.383e-06
9.675e-06
1.002e-05
1.042e-05
1.088e-05
1.141e-05
1.199e-05
1.265e-05
1.337e-05
1.417e-05
1.504e-05
1.6e-05
1.703e-05
1.815e-05
1.936e-05
2.066e-05
2.204e-05
2.35e-05
2.505e-05
2.667e-05
2.836e-05
3.01e-05
3.187e-05
3.367e-05
3.545e-05
3.721e-05
3.89e-05
5.04e-06
7.825e-06
8.288e-06
8.477e-06
8.678e-06
8.93e-06
9.236e-06
9.602e-06
1.003e-05
1.052e-05
1.108e-05
1.17e-05
1.241e-05
1.319e-05
1.406e-05
1.501e-05
1.606e-05
1.721e-05
1.846e-05
1.982e-05
2.129e-05
2.287e-05
2.456e-05
2.637e-05
2.828e-05
3.028e-05
3.237e-05
3.452e-05
3.671e-05
3.89e-05
4.108e-05
4.319e-05
5.039e-06
7.823e-06
8.286e-06
8.475e-06
8.676e-06
8.926e-06
9.232e-06
9.597e-06
1.002e-05
1.051e-05
1.107e-05
1.169e-05
1.239e-05
1.317e-05
1.404e-05
1.499e-05
1.603e-05
1.717e-05
1.842e-05
1.977e-05
2.123e-05
2.28e-05
2.448e-05
2.627e-05
2.816e-05
3.015e-05
3.222e-05
3.435e-05
3.651e-05
3.869e-05
4.084e-05
4.293e-05
5.036e-06
7.82e-06
8.282e-06
8.47e-06
8.67e-06
8.92e-06
9.225e-06
9.587e-06
1.001e-05
1.05e-05
1.105e-05
1.167e-05
1.237e-05
1.314e-05
1.4e-05
1.494e-05
1.598e-05
1.711e-05
1.834e-05
1.967e-05
2.112e-05
2.267e-05
2.432e-05
2.609e-05
2.795e-05
2.99e-05
3.193e-05
3.402e-05
3.614e-05
3.827e-05
4.038e-05
4.242e-05
5.033e-06
7.814e-06
8.276e-06
8.463e-06
8.662e-06
8.91e-06
9.213e-06
9.574e-06
9.994e-06
1.048e-05
1.102e-05
1.164e-05
1.233e-05
1.31e-05
1.394e-05
1.488e-05
1.59e-05
1.701e-05
1.822e-05
1.954e-05
2.095e-05
2.247e-05
2.409e-05
2.582e-05
2.763e-05
2.954e-05
3.151e-05
3.354e-05
3.56e-05
3.767e-05
3.97e-05
4.168e-05
4.724e-06
7.338e-06
7.781e-06
7.972e-06
8.18e-06
8.441e-06
8.76e-06
9.14e-06
9.585e-06
1.01e-05
1.068e-05
1.134e-05
1.209e-05
1.291e-05
1.384e-05
4.723e-06
7.336e-06
7.779e-06
7.969e-06
8.177e-06
8.437e-06
8.755e-06
9.135e-06
9.578e-06
1.009e-05
1.067e-05
1.133e-05
1.207e-05
1.29e-05
4.721e-06
7.332e-06
7.775e-06
7.964e-06
8.171e-06
8.43e-06
8.747e-06
9.125e-06
9.566e-06
1.007e-05
1.065e-05
1.131e-05
1.204e-05
4.717e-06
7.327e-06
7.768e-06
7.957e-06
8.163e-06
8.42e-06
8.735e-06
9.11e-06
9.548e-06
1.005e-05
1.063e-05
1.127e-05
8.237e-06
1.276e-05
1.343e-05
1.358e-05
1.37e-05
1.383e-05
1.399e-05
1.419e-05
1.44e-05
1.465e-05
1.492e-05
1.522e-05
1.555e-05
1.59e-05
1.628e-05
1.668e-05
1.71e-05
1.754e-05
1.8e-05
1.848e-05
1.897e-05
1.947e-05
1.998e-05
2.05e-05
2.101e-05
2.153e-05
2.204e-05
2.254e-05
2.302e-05
2.348e-05
2.392e-05
2.433e-05
8.234e-06
1.276e-05
1.342e-05
1.358e-05
1.369e-05
1.383e-05
1.399e-05
1.418e-05
1.44e-05
1.464e-05
1.492e-05
1.521e-05
1.554e-05
1.589e-05
1.627e-05
1.666e-05
1.708e-05
1.752e-05
1.798e-05
1.846e-05
1.895e-05
1.945e-05
1.996e-05
2.047e-05
2.098e-05
2.15e-05
2.2e-05
2.25e-05
2.298e-05
2.344e-05
2.388e-05
2.429e-05
8.232e-06
1.275e-05
1.342e-05
1.357e-05
1.369e-05
1.382e-05
1.398e-05
1.417e-05
1.439e-05
1.464e-05
1.491e-05
1.521e-05
1.553e-05
1.588e-05
1.625e-05
1.665e-05
1.707e-05
1.751e-05
1.796e-05
1.844e-05
1.892e-05
1.942e-05
1.993e-05
2.044e-05
2.095e-05
2.146e-05
2.197e-05
2.246e-05
2.294e-05
2.339e-05
2.383e-05
2.423e-05
8.229e-06
1.275e-05
1.341e-05
1.357e-05
1.368e-05
1.382e-05
1.398e-05
1.417e-05
1.438e-05
1.463e-05
1.49e-05
1.52e-05
1.552e-05
1.587e-05
1.624e-05
1.663e-05
1.705e-05
1.749e-05
1.794e-05
1.841e-05
1.89e-05
1.939e-05
1.99e-05
2.041e-05
2.092e-05
2.142e-05
2.192e-05
2.241e-05
2.289e-05
2.334e-05
2.377e-05
2.418e-05
8.226e-06
1.274e-05
1.341e-05
1.356e-05
1.368e-05
1.381e-05
1.397e-05
1.416e-05
1.438e-05
1.462e-05
1.489e-05
1.519e-05
1.551e-05
1.585e-05
1.622e-05
1.662e-05
1.703e-05
1.747e-05
1.792e-05
1.839e-05
1.887e-05
1.936e-05
1.987e-05
2.037e-05
2.088e-05
2.138e-05
2.188e-05
2.237e-05
2.284e-05
2.329e-05
2.372e-05
2.412e-05
8.223e-06
1.274e-05
1.34e-05
1.356e-05
1.367e-05
1.38e-05
1.397e-05
1.415e-05
1.437e-05
1.461e-05
1.488e-05
1.517e-05
1.55e-05
1.584e-05
1.621e-05
1.66e-05
1.701e-05
1.745e-05
1.79e-05
1.836e-05
1.884e-05
1.933e-05
1.983e-05
2.034e-05
2.084e-05
2.134e-05
2.183e-05
2.232e-05
2.278e-05
2.323e-05
2.366e-05
2.406e-05
8.22e-06
1.274e-05
1.34e-05
1.355e-05
1.367e-05
1.38e-05
1.396e-05
1.415e-05
1.436e-05
1.46e-05
1.487e-05
1.516e-05
1.548e-05
1.583e-05
1.62e-05
1.659e-05
1.7e-05
1.743e-05
1.788e-05
1.834e-05
1.882e-05
1.93e-05
1.98e-05
2.03e-05
2.08e-05
2.13e-05
2.179e-05
2.227e-05
2.273e-05
2.318e-05
2.36e-05
2.4e-05
8.217e-06
1.273e-05
1.339e-05
1.355e-05
1.366e-05
1.379e-05
1.395e-05
1.414e-05
1.435e-05
1.459e-05
1.486e-05
1.515e-05
1.547e-05
1.581e-05
1.618e-05
1.657e-05
1.698e-05
1.741e-05
1.785e-05
1.832e-05
1.879e-05
1.928e-05
1.977e-05
2.027e-05
2.076e-05
2.126e-05
2.175e-05
2.222e-05
2.268e-05
2.313e-05
2.355e-05
2.394e-05
8.214e-06
1.273e-05
1.339e-05
1.354e-05
1.365e-05
1.379e-05
1.395e-05
1.413e-05
1.435e-05
1.459e-05
1.485e-05
1.514e-05
1.546e-05
1.58e-05
1.617e-05
1.655e-05
1.696e-05
1.739e-05
1.783e-05
1.829e-05
1.877e-05
1.925e-05
1.974e-05
2.023e-05
2.073e-05
2.122e-05
2.17e-05
2.218e-05
2.264e-05
2.308e-05
2.349e-05
2.388e-05
8.21e-06
1.272e-05
1.338e-05
1.353e-05
1.365e-05
1.378e-05
1.394e-05
1.412e-05
1.434e-05
1.458e-05
1.484e-05
1.513e-05
1.545e-05
1.579e-05
1.615e-05
1.654e-05
1.694e-05
1.737e-05
1.781e-05
1.827e-05
1.874e-05
1.922e-05
1.971e-05
2.02e-05
2.069e-05
2.118e-05
2.166e-05
2.213e-05
2.259e-05
2.303e-05
2.344e-05
2.383e-05
8.201e-06
1.27e-05
1.336e-05
1.351e-05
1.362e-05
1.376e-05
1.391e-05
1.41e-05
1.431e-05
1.455e-05
1.481e-05
1.51e-05
1.542e-05
1.576e-05
1.612e-05
1.65e-05
1.691e-05
1.733e-05
1.777e-05
1.823e-05
1.87e-05
1.917e-05
1.966e-05
2.015e-05
2.064e-05
2.112e-05
2.16e-05
2.207e-05
2.252e-05
2.296e-05
2.337e-05
2.375e-05
8.156e-06
1.261e-05
1.326e-05