/*--------------------------------*- C++ -*----------------------------------*\
  =========                 |
  \\      /  F ield         | OpenFOAM: The Open Source CFD Toolbox
   \\    /   O peration     | Website:  https://openfoam.org
    \\  /    A nd           | Version:  6
     \\/     M anipulation  |
\*---------------------------------------------------------------------------*/
FoamFile
{
    version     2.0;
    format      ascii;
    class       volScalarField;
    location    "10";
    object      T;
}
// * * * * * * * * * * * * * * * * * * * * * * * * * * * * * * * * * * * * * //

dimensions      [0 0 0 1 0 0 0];

internalField   nonuniform List<scalar> 
16128
(
6.021
6.015
6.005
5.993
5.977
5.958
5.937
5.912
5.884
5.853
5.819
5.783
5.743
5.7
5.655
5.607
5.557
5.504
5.449
5.392
5.333
5.272
5.21
5.147
5.083
5.019
4.955
4.892
4.83
4.77
4.712
4.657
6.02
6.014
6.004
5.992
5.976
5.957
5.936
5.911
5.883
5.852
5.819
5.782
5.743
5.7
5.655
5.608
5.557
5.505
5.45
5.393
5.334
5.274
5.212
5.149
5.086
5.022
4.958
4.895
4.834
4.773
4.716
4.661
6.017
6.011
6.002
5.989
5.974
5.955
5.934
5.909
5.882
5.851
5.818
5.781
5.742
5.7
5.655
5.608
5.558
5.506
5.452
5.395
5.337
5.277
5.216
5.153
5.09
5.027
4.964
4.902
4.84
4.781
4.724
4.67
6.013
6.007
5.998
5.986
5.971
5.952
5.931
5.907
5.879
5.849
5.816
5.78
5.741
5.7
5.655
5.609
5.559
5.508
5.454
5.398
5.341
5.281
5.221
5.159
5.097
5.035
4.973
4.911
4.851
4.792
4.736
4.683
5.937
5.931
5.922
5.909
5.893
5.874
5.851
5.826
5.797
5.765
5.731
5.693
5.653
5.609
5.563
5.515
5.464
5.41
5.355
5.297
5.238
5.177
5.115
5.053
4.989
4.926
4.863
4.801
4.74
4.681
4.625
4.572
5.936
5.93
5.921
5.908
5.892
5.873
5.85
5.825
5.796
5.765
5.73
5.693
5.653
5.609
5.564
5.515
5.464
5.411
5.356
5.298
5.239
5.179
5.117
5.055
4.992
4.929
4.866
4.804
4.744
4.685
4.629
4.576
5.934
5.928
5.919
5.906
5.89
5.871
5.849
5.823
5.795
5.764
5.73
5.692
5.652
5.609
5.564
5.516
5.465
5.413
5.358
5.301
5.242
5.182
5.121
5.059
4.997
4.934
4.872
4.811
4.751
4.693
4.638
4.585
5.931
5.925
5.915
5.903
5.887
5.868
5.846
5.821
5.793
5.762
5.728
5.691
5.652
5.61
5.564
5.517
5.467
5.415
5.361
5.304
5.246
5.187
5.127
5.066
5.004
4.942
4.881
4.821
4.762
4.704
4.65
4.598
5.856
5.849
5.839
5.826
5.81
5.79
5.767
5.741
5.711
5.679
5.644
5.605
5.564
5.52
5.473
5.423
5.372
5.317
5.261
5.203
5.144
5.083
5.021
4.959
4.896
4.833
4.771
4.71
4.651
4.593
4.538
4.487
5.855
5.848
5.838
5.825
5.809
5.789
5.766
5.74
5.711
5.679
5.643
5.605
5.564
5.52
5.473
5.424
5.372
5.318
5.263
5.205
5.146
5.085
5.023
4.961
4.899
4.836
4.774
4.714
4.654
4.597
4.543
4.491
5.853
5.846
5.837
5.824
5.807
5.788
5.765
5.739
5.71
5.678
5.643
5.605
5.564
5.52
5.474
5.425
5.374
5.32
5.265
5.208
5.149
5.089
5.028
4.966
4.904
4.842
4.781
4.72
4.662
4.605
4.551
4.5
5.85
5.844
5.834
5.821
5.805
5.785
5.763
5.737
5.708
5.677
5.642
5.604
5.564
5.521
5.475
5.426
5.376
5.323
5.268
5.212
5.153
5.094
5.034
4.973
4.911
4.85
4.79
4.73
4.672
4.617
4.563
4.513
5.775
5.769
5.759
5.745
5.728
5.708
5.684
5.657
5.627
5.594
5.558
5.518
5.476
5.431
5.383
5.333
5.28
5.226
5.169
5.111
5.051
4.99
4.928
4.866
4.803
4.741
4.68
4.62
4.561
4.505
4.451
4.401
5.774
5.768
5.758
5.744
5.727
5.707
5.684
5.657
5.627
5.594
5.558
5.518
5.476
5.431
5.384
5.334
5.281
5.227
5.17
5.112
5.053
4.992
4.93
4.868
4.806
4.744
4.683
4.623
4.565
4.509
4.456
4.406
5.773
5.766
5.756
5.743
5.726
5.706
5.683
5.656
5.626
5.593
5.557
5.518
5.477
5.432
5.385
5.335
5.283
5.229
5.173
5.115
5.056
4.996
4.935
4.873
4.812
4.75
4.69
4.63
4.572
4.517
4.464
4.415
5.77
5.764
5.754
5.74
5.724
5.704
5.681
5.654
5.625
5.592
5.557
5.518
5.477
5.433
5.386
5.337
5.286
5.232
5.177
5.12
5.061
5.002
4.941
4.881
4.82
4.759
4.699
4.641
4.584
4.529
4.477
4.428
5.696
5.69
5.679
5.665
5.648
5.627
5.603
5.575
5.544
5.51
5.473
5.433
5.39
5.344
5.295
5.244
5.191
5.135
5.078
5.019
4.959
4.897
4.836
4.773
4.711
4.649
4.589
4.529
4.472
4.416
4.364
4.315
5.695
5.689
5.679
5.665
5.647
5.627
5.602
5.575
5.544
5.51
5.473
5.433
5.39
5.344
5.296
5.245
5.192
5.136
5.079
5.021
4.961
4.9
4.838
4.776
4.714
4.653
4.592
4.533
4.476
4.421
4.368
4.32
5.694
5.687
5.677
5.663
5.646
5.626
5.602
5.574
5.544
5.51
5.473
5.433
5.391
5.345
5.297
5.246
5.194
5.139
5.082
5.024
4.964
4.904
4.843
4.781
4.72
4.659
4.599
4.54
4.483
4.429
4.377
4.329
5.692
5.685
5.675
5.661
5.644
5.624
5.6
5.573
5.543
5.509
5.473
5.434
5.391
5.346
5.299
5.249
5.197
5.142
5.086
5.029
4.97
4.91
4.85
4.789
4.728
4.668
4.609
4.551
4.495
4.441
4.39
4.342
5.619
5.612
5.601
5.587
5.569
5.548
5.523
5.495
5.463
5.428
5.39
5.349
5.304
5.257
5.208
5.156
5.102
5.045
4.987
4.928
4.867
4.806
4.744
4.681
4.619
4.558
4.498
4.439
4.382
4.328
4.276
4.228
5.618
5.611
5.601
5.587
5.569
5.548
5.523
5.494
5.463
5.428
5.39
5.349
5.305
5.258
5.209
5.157
5.103
5.047
4.989
4.93
4.869
4.808
4.746
4.684
4.622
4.561
4.501
4.443
4.386
4.332
4.281
4.233
5.617
5.61
5.6
5.585
5.568
5.547
5.522
5.494
5.463
5.428
5.39
5.349
5.306
5.259
5.21
5.159
5.105
5.049
4.992
4.933
4.873
4.813
4.751
4.69
4.628
4.568
4.508
4.45
4.394
4.34
4.289
4.242
5.615
5.608
5.598
5.584
5.566
5.545
5.521
5.493
5.462
5.428
5.39
5.35
5.307
5.261
5.212
5.162
5.109
5.054
4.997
4.939
4.879
4.819
4.759
4.698
4.637
4.577
4.518
4.461
4.406
4.353
4.303
4.256
5.543
5.536
5.525
5.511
5.492
5.47
5.445
5.416
5.383
5.347
5.308
5.266
5.22
5.172
5.122
5.069
5.014
4.957
4.898
4.838
4.776
4.714
4.652
4.59
4.528
4.467
4.407
4.348
4.292
4.238
4.188
4.141
5.542
5.535
5.525
5.51
5.492
5.47
5.444
5.415
5.383
5.347
5.308
5.266
5.221
5.173
5.123
5.07
5.015
4.958
4.9
4.84
4.779
4.717
4.655
4.593
4.531
4.47
4.41
4.352
4.296
4.243
4.192
4.145
5.541
5.534
5.524
5.509
5.491
5.469
5.444
5.415
5.383
5.347
5.309
5.267
5.222
5.175
5.125
5.072
5.018
4.961
4.903
4.844
4.783
4.722
4.66
4.599
4.537
4.477
4.418
4.36
4.304
4.251
4.201
4.155
5.539
5.533
5.522
5.508
5.49
5.468
5.443
5.415
5.383
5.347
5.309
5.268
5.224
5.177
5.127
5.075
5.021
4.966
4.908
4.849
4.789
4.729
4.668
4.607
4.547
4.487
4.428
4.371
4.316
4.264
4.215
4.169
5.468
5.461
5.45
5.435
5.417
5.394
5.368
5.338
5.304
5.267
5.227
5.184
5.138
5.088
5.037
4.983
4.927
4.869
4.809
4.748
4.686
4.624
4.561
4.499
4.436
4.375
4.316
4.258
4.202
4.149
4.099
4.052
5.468
5.461
5.45
5.435
5.416
5.394
5.367
5.338
5.304
5.268
5.227
5.184
5.138
5.089
5.038
4.984
4.928
4.87
4.811
4.75
4.689
4.626
4.564
4.502
4.44
4.379
4.319
4.262
4.206
4.153
4.103
4.057
5.467
5.46
5.449
5.434
5.416
5.393
5.367
5.338
5.304
5.268
5.228
5.185
5.14
5.091
5.04
4.986
4.931
4.873
4.815
4.754
4.693
4.631
4.57
4.508
4.446
4.386
4.327
4.27
4.215
4.162
4.113
4.067
5.465
5.459
5.448
5.433
5.414
5.392
5.367
5.337
5.305
5.268
5.229
5.187
5.141
5.093
5.043
4.99
4.935
4.878
4.82
4.761
4.7
4.639
4.578
4.517
4.456
4.396
4.338
4.281
4.227
4.175
4.126
4.081
5.395
5.388
5.377
5.362
5.342
5.319
5.292
5.261
5.227
5.189
5.148
5.103
5.056
5.005
4.953
4.898
4.84
4.781
4.721
4.659
4.597
4.533
4.47
4.407
4.345
4.284
4.224
4.167
4.111
4.059
4.009
3.963
5.395
5.388
5.377
5.361
5.342
5.319
5.292
5.261
5.227
5.189
5.148
5.104
5.057
5.006
4.954
4.899
4.842
4.783
4.723
4.661
4.599
4.536
4.473
4.411
4.349
4.288
4.228
4.171
4.116
4.063
4.014
3.968
5.394
5.387
5.376
5.361
5.342
5.319
5.292
5.261
5.227
5.19
5.149
5.105
5.058
5.008
4.956
4.902
4.845
4.787
4.727
4.666
4.604
4.542
4.479
4.417
4.356
4.295
4.236
4.179
4.124
4.072
4.023
3.978
5.393
5.386
5.375
5.36
5.341
5.318
5.291
5.261
5.228
5.191
5.15
5.107
5.06
5.011
4.96
4.906
4.85
4.792
4.733
4.672
4.611
4.55
4.488
4.426
4.366
4.306
4.248
4.191
4.137
4.086
4.037
3.993
5.324
5.317
5.305
5.289
5.27
5.246
5.218
5.186
5.151
5.112
5.069
5.024
4.975
4.923
4.869
4.813
4.755
4.695
4.633
4.571
4.507
4.444
4.38
4.317
4.254
4.193
4.133
4.076
4.02
3.968
3.919
3.873
5.324
5.317
5.305
5.289
5.269
5.246
5.218
5.186
5.151
5.112
5.07
5.024
4.976
4.925
4.871
4.815
4.756
4.697
4.635
4.573
4.51
4.446
4.383
4.32
4.258
4.197
4.137
4.08
4.025
3.973
3.924
3.879
5.323
5.316
5.304
5.289
5.269
5.245
5.218
5.186
5.151
5.113
5.071
5.026
4.978
4.927
4.873
4.818
4.76
4.7
4.64
4.578
4.515
4.452
4.389
4.327
4.265
4.204
4.145
4.088
4.034
3.982
3.933
3.889
5.322
5.315
5.303
5.288
5.268
5.245
5.218
5.187
5.152
5.114
5.072
5.028
4.98
4.93
4.877
4.822
4.765
4.706
4.646
4.585
4.523
4.461
4.398
4.336
4.275
4.215
4.157
4.101
4.047
3.996
3.948
3.903
5.254
5.247
5.235
5.219
5.198
5.174
5.145
5.112
5.076
5.036
4.992
4.945
4.895
4.842
4.787
4.729
4.67
4.609
4.546
4.482
4.418
4.354
4.289
4.226
4.163
4.101
4.041
3.984
3.929
3.877
3.828
3.783
5.254
5.247
5.235
5.219
5.198
5.174
5.145
5.112
5.076
5.036
4.993
4.946
4.896
4.844
4.788
4.731
4.672
4.611
4.548
4.485
4.421
4.357
4.293
4.229
4.167
4.105
4.046
3.988
3.933
3.881
3.833
3.788
5.253
5.246
5.234
5.218
5.198
5.173
5.145
5.113
5.077
5.037
4.994
4.948
4.898
4.846
4.791
4.734
4.675
4.615
4.553
4.49
4.426
4.363
4.299
4.236
4.174
4.113
4.054
3.997
3.943
3.891
3.843
3.798
5.252
5.245
5.233
5.217
5.197
5.173
5.145
5.113
5.078
5.038
4.996
4.95
4.901
4.849
4.795
4.739
4.681
4.621
4.56
4.497
4.435
4.372
4.309
4.246
4.185
4.125
4.066
4.01
3.956
3.905
3.858
3.814
5.186
5.178
5.166
5.149
5.128
5.103
5.073
5.04
5.002
4.961
4.916
4.868
4.816
4.762
4.705
4.646
4.586
4.523
4.459
4.395
4.329
4.264
4.199
4.135
4.071
4.01
3.95
3.892
3.837
3.785
3.736
3.691
5.185
5.178
5.166
5.149
5.128
5.103
5.073
5.04
5.002
4.961
4.916
4.868
4.817
4.763
4.707
4.648
4.588
4.525
4.462
4.397
4.332
4.267
4.203
4.138
4.075
4.014
3.954
3.896
3.842
3.79
3.741
3.697
5.185
5.177
5.165
5.149
5.128
5.103
5.074
5.04
5.003
4.962
4.918
4.87
4.82
4.766
4.71
4.652
4.591
4.53
4.467
4.403
4.338
4.274
4.209
4.146
4.083
4.022
3.962
3.905
3.851
3.8
3.751
3.707
5.184
5.177
5.165
5.148
5.128
5.103
5.074
5.041
5.004
4.964
4.92
4.873
4.823
4.77
4.714
4.657
4.597
4.536
4.474
4.411
4.347
4.283
4.219
4.156
4.094
4.034
3.975
3.919
3.865
3.814
3.767
3.723
5.118
5.111
5.098
5.081
5.059
5.033
5.003
4.968
4.929
4.887
4.841
4.791
4.738
4.683
4.624
4.564
4.502
4.438
4.373
4.307
4.241
4.175
4.109
4.044
3.98
3.917
3.857
3.799
3.744
3.692
3.644
3.599
5.118
5.111
5.098
5.081
5.059
5.033
5.003
4.968
4.93
4.887
4.841
4.792
4.739
4.684
4.626
4.566
4.504
4.44
4.376
4.31
4.244
4.178
4.112
4.047
3.984
3.922
3.862
3.804
3.749
3.697
3.649
3.604
5.118
5.11
5.098
5.081
5.059
5.034
5.003
4.969
4.931
4.889
4.843
4.794
4.742
4.687
4.629
4.57
4.508
4.445
4.381
4.316
4.25
4.185
4.119
4.055
3.992
3.93
3.871
3.813
3.759
3.707
3.659
3.615
5.117
5.11
5.097
5.081
5.059
5.034
5.004
4.97
4.932
4.891
4.845
4.797
4.745
4.691
4.634
4.575
4.514
4.452
4.388
4.324
4.259
4.194
4.13
4.066
4.004
3.943
3.884
3.827
3.773
3.722
3.675
3.631
5.053
5.045
5.032
5.014
4.992
4.965
4.934
4.898
4.858
4.814
4.766
4.715
4.661
4.604
4.544
4.482
4.418
4.353
4.287
4.22
4.152
4.085
4.018
3.953
3.888
3.825
3.764
3.706
3.651
3.599
3.55
3.506
5.052
5.045
5.032
5.014
4.992
4.965
4.934
4.898
4.858
4.815
4.767
4.716
4.662
4.605
4.546
4.484
4.421
4.356
4.29
4.223
4.156
4.089
4.022
3.956
3.892
3.83
3.769
3.711
3.656
3.604
3.556
3.511
5.052
5.045
5.032
5.014
4.992
4.966
4.934
4.899
4.859
4.816
4.769
4.718
4.665
4.608
4.549
4.488
4.425
4.361
4.295
4.229
4.162
4.096
4.029
3.964
3.901
3.838
3.778
3.721
3.666
3.615
3.566
3.522
5.052
5.044
5.031
5.014
4.992
4.966
4.935
4.9
4.861
4.818
4.772
4.722
4.669
4.613
4.554
4.494
4.432
4.368
4.303
4.237
4.172
4.106
4.04
3.976
3.913
3.851
3.792
3.735
3.681
3.63
3.583
3.539
4.988
4.98
4.967
4.949
4.926
4.898
4.865
4.828
4.787
4.742
4.693
4.64
4.584
4.526
4.464
4.401
4.336
4.269
4.201
4.133
4.064
3.996
3.928
3.861
3.796
3.732
3.671
3.613
3.557
3.505
3.456
3.411
4.988
4.98
4.967
4.949
4.926
4.898
4.866
4.829
4.788
4.743
4.694
4.641
4.586
4.527
4.466
4.403
4.338
4.271
4.204
4.136
4.067
3.999
3.932
3.865
3.8
3.737
3.676
3.618
3.562
3.51
3.462
3.417
4.988
4.98
4.967
4.949
4.926
4.899
4.866
4.83
4.789
4.744
4.696
4.644
4.589
4.53
4.47
4.407
4.343
4.277
4.21
4.142
4.074
4.006
3.939
3.873
3.809
3.746
3.686
3.628
3.573
3.521
3.473
3.429
4.987
4.98
4.967
4.949
4.926
4.899
4.867
4.831
4.791
4.747
4.699
4.647
4.593
4.535
4.475
4.413
4.349
4.284
4.218
4.151
4.084
4.017
3.951
3.886
3.822
3.76
3.7
3.643
3.588
3.537
3.489
3.446
4.925
4.917
4.903
4.885
4.861
4.832
4.798
4.76
4.718
4.671
4.62
4.566
4.508
4.448
4.385
4.32
4.253
4.185
4.115
4.046
3.976
3.906
3.837
3.77
3.703
3.639
3.578
3.518
3.463
3.41
3.361
3.316
4.925
4.917
4.903
4.885
4.861
4.832
4.799
4.761
4.718
4.672
4.621
4.567
4.51
4.45
4.387
4.322
4.255
4.187
4.118
4.049
3.979
3.91
3.841
3.774
3.708
3.644
3.583
3.524
3.468
3.416
3.367
3.322
4.925
4.917
4.903
4.885
4.861
4.833
4.8
4.762
4.72
4.673
4.623
4.57
4.513
4.453
4.391
4.327
4.26
4.193
4.124
4.055
3.986
3.917
3.849
3.782
3.717
3.654
3.592
3.534
3.479
3.427
3.378
3.334
4.924
4.917
4.903
4.885
4.862
4.834
4.801
4.763
4.722
4.676
4.627
4.574
4.517
4.458
4.397
4.333
4.268
4.201
4.133
4.065
3.997
3.929
3.861
3.795
3.73
3.668
3.607
3.549
3.495
3.443
3.396
3.352
4.863
4.855
4.841
4.821
4.797
4.767
4.732
4.693
4.649
4.601
4.548
4.492
4.433
4.371
4.306
4.239
4.171
4.101
4.03
3.959
3.887
3.816
3.746
3.678
3.611
3.546
3.483
3.424
3.367
3.315
3.266
3.221
4.863
4.855
4.841
4.822
4.797
4.767
4.733
4.694
4.65
4.602
4.55
4.494
4.435
4.373
4.308
4.242
4.173
4.104
4.033
3.962
3.891
3.82
3.751
3.682
3.615
3.551
3.488
3.429
3.373
3.32
3.271
3.227
4.863
4.855
4.841
4.822
4.798
4.768
4.734
4.695
4.651
4.604
4.552
4.497
4.438
4.377
4.313
4.246
4.178
4.109
4.039
3.969
3.898
3.828
3.759
3.691
3.625
3.561
3.499
3.44
3.384
3.332
3.283
3.239
4.863
4.855
4.841
4.822
4.798
4.769
4.735
4.697
4.654
4.606
4.555
4.501
4.443
4.382
4.319
4.253
4.186
4.118
4.049
3.979
3.909
3.84
3.771
3.704
3.639
3.575
3.514
3.456
3.401
3.349
3.301
3.257
4.802
4.794
4.779
4.759
4.734
4.703
4.667
4.627
4.581
4.531
4.477
4.42
4.358
4.294
4.228
4.159
4.089
4.017
3.944
3.871
3.799
3.726
3.655
3.585
3.517
3.452
3.389
3.328
3.272
3.218
3.169
3.124
4.802
4.794
4.78
4.76
4.734
4.704
4.668
4.627
4.582
4.532
4.479
4.421
4.36
4.296
4.23
4.162
4.091
4.02
3.948
3.875
3.803
3.731
3.66
3.59
3.522
3.457
3.394
3.334
3.277
3.224
3.175
3.13
4.802
4.794
4.78
4.76
4.735
4.705
4.669
4.629
4.584
4.534
4.481
4.424
4.364
4.3
4.234
4.167
4.097
4.026
3.954
3.882
3.81
3.739
3.668
3.599
3.532
3.467
3.405
3.345
3.289
3.236
3.187
3.143
4.802
4.794
4.78
4.76
4.736
4.706
4.671
4.631
4.586
4.537
4.485
4.428
4.369
4.306
4.241
4.174
4.105
4.035
3.964
3.893
3.822
3.751
3.681
3.613
3.547
3.482
3.42
3.362
3.306
3.254
3.206
3.161
4.742
4.734
4.719
4.699
4.672
4.641
4.603
4.561
4.514
4.463
4.407
4.347
4.284
4.218
4.15
4.079
4.007
3.933
3.859
3.784
3.71
3.636
3.564
3.493
3.424
3.357
3.293
3.233
3.175
3.122
3.072
3.027
4.742
4.734
4.719
4.699
4.673
4.641
4.604
4.562
4.515
4.464
4.408
4.349
4.286
4.22
4.152
4.082
4.01
3.936
3.862
3.788
3.714
3.641
3.568
3.498
3.429
3.363
3.299
3.238
3.181
3.128
3.078
3.033
4.743
4.734
4.72
4.699
4.673
4.642
4.605
4.564
4.517
4.466
4.411
4.352
4.29
4.225
4.157
4.087
4.015
3.943
3.869
3.796
3.722
3.649
3.578
3.507
3.439
3.373
3.31
3.25
3.193
3.14
3.091
3.046
4.743
4.734
4.72
4.7
4.674
4.643
4.607
4.566
4.52
4.469
4.415
4.357
4.295
4.231
4.164
4.095
4.024
3.952
3.88
3.807
3.734
3.662
3.591
3.522
3.454
3.389
3.326
3.267
3.211
3.158
3.11
3.065
4.684
4.675
4.66
4.639
4.612
4.579
4.54
4.497
4.448
4.395
4.337
4.276
4.211
4.143
4.072
3.999
3.925
3.85
3.774
3.697
3.621
3.546
3.472
3.4
3.33
3.262
3.198
3.136
3.078
3.024
2.974
2.928
4.684
4.675
4.66
4.639
4.612
4.579
4.541
4.498
4.449
4.396
4.339
4.277
4.213
4.145
4.075
4.002
3.928
3.853
3.777
3.701
3.626
3.551
3.477
3.405
3.335
3.268
3.203
3.142
3.084
3.03
2.98
2.935
4.684
4.676
4.661
4.64
4.613
4.58
4.542
4.499
4.451
4.398
4.342
4.281
4.217
4.149
4.08
4.008
3.934
3.86
3.784
3.709
3.634
3.56
3.486
3.415
3.346
3.279
3.215
3.154
3.097
3.043
2.993
2.948
4.684
4.676
4.661
4.64
4.614
4.582
4.544
4.502
4.454
4.402
4.346
4.286
4.222
4.156
4.087
4.016
3.943
3.869
3.795
3.721
3.646
3.573
3.501
3.43
3.361
3.295
3.232
3.172
3.115
3.062
3.013
2.968
5.045
5.112
5.08
5.174
5.144
5.115
5.231
5.202
5.176
5.15
5.279
5.253
5.229
5.206
5.184
5.315
5.292
5.27
5.248
5.228
5.209
6.008
6.002
5.993
5.981
5.966
5.948
5.927
5.903
5.876
5.846
5.813
5.778
5.74
5.699
5.655
5.609
5.561
5.51
5.457
5.402
5.345
5.287
5.228
5.167
5.106
5.045
4.984
4.923
4.864
4.807
4.752
4.7
6.002
5.996
5.987
5.975
5.96
5.942
5.922
5.898
5.872
5.842
5.81
5.775
5.738
5.698
5.655
5.61
5.562
5.512
5.46
5.406
5.351
5.294
5.236
5.177
5.117
5.057
4.997
4.938
4.88
4.824
4.771
4.72
5.994
5.988
5.979
5.967
5.953
5.935
5.915
5.892
5.866
5.838
5.806
5.772
5.735
5.696
5.654
5.61
5.563
5.515
5.464
5.412
5.357
5.302
5.245
5.187
5.129
5.071
5.013
4.955
4.899
4.845
4.793
4.744
5.984
5.978
5.97
5.958
5.944
5.927
5.907
5.885
5.859
5.832
5.801
5.768
5.732
5.694
5.653
5.61
5.565
5.517
5.468
5.417
5.364
5.31
5.255
5.199
5.143
5.086
5.03
4.975
4.92
4.868
4.818
4.77
5.972
5.967
5.958
5.947
5.933
5.917
5.898
5.876
5.851
5.824
5.795
5.762
5.728
5.69
5.651
5.609
5.565
5.52
5.472
5.422
5.372
5.319
5.266
5.212
5.158
5.103
5.049
4.996
4.944
4.893
4.845
4.799
5.959
5.953
5.945
5.934
5.921
5.905
5.886
5.865
5.842
5.815
5.787
5.756
5.722
5.686
5.648
5.608
5.566
5.521
5.475
5.428
5.379
5.329
5.278
5.226
5.173
5.121
5.069
5.018
4.968
4.92
4.874
4.83
5.943
5.938
5.93
5.919
5.906
5.891
5.873
5.853
5.83
5.805
5.777
5.747
5.715
5.681
5.644
5.606
5.565
5.523
5.479
5.433
5.386
5.338
5.289
5.24
5.19
5.14
5.09
5.042
4.994
4.948
4.904
4.863
5.924
5.919
5.912
5.902
5.89
5.875
5.858
5.838
5.817
5.793
5.766
5.738
5.707
5.674
5.639
5.602
5.563
5.523
5.481
5.438
5.393
5.347
5.301
5.254
5.206
5.159
5.112
5.066
5.021
4.978
4.936
4.897
5.903
5.899
5.891
5.882
5.87
5.856
5.84
5.822
5.801
5.778
5.753
5.726
5.696
5.665
5.632
5.597
5.56
5.522
5.482
5.441
5.399
5.356
5.312
5.268
5.223
5.179
5.134
5.091
5.049
5.008
4.969
4.933
5.879
5.875
5.868
5.859
5.848
5.835
5.82
5.802
5.783
5.761
5.737
5.712
5.684
5.654
5.623
5.59
5.556
5.52
5.482
5.444
5.404
5.363
5.322
5.281
5.239
5.198
5.157
5.116
5.077
5.039
5.003
4.969
5.852
5.848
5.842
5.833
5.823
5.811
5.796
5.78
5.761
5.741
5.719
5.695
5.669
5.641
5.612
5.581
5.549
5.515
5.48
5.444
5.408
5.37
5.332
5.293
5.255
5.217
5.179
5.141
5.105
5.071
5.037
5.006
5.821
5.818
5.812
5.804
5.794
5.783
5.77
5.754
5.737
5.719
5.698
5.675
5.651
5.626
5.599
5.57
5.54
5.509
5.477
5.444
5.41
5.375
5.34
5.305
5.27
5.235
5.2
5.166
5.133
5.102
5.072
5.044
5.787
5.783
5.778
5.771
5.763
5.752
5.74
5.726
5.71
5.693
5.674
5.653
5.631
5.607
5.582
5.556
5.528
5.5
5.471
5.44
5.41
5.378
5.347
5.315
5.283
5.252
5.221
5.19
5.161
5.133
5.106
5.082
5.749
5.746
5.742
5.736
5.728
5.718
5.707
5.694
5.68
5.664
5.646
5.628
5.607
5.586
5.563
5.539
5.514
5.488
5.462
5.435
5.407
5.379
5.351
5.322
5.294
5.266
5.239
5.213
5.187
5.162
5.139
5.118
5.714
5.712
5.709
5.703
5.696
5.687
5.677
5.665
5.652
5.637
5.621
5.604
5.585
5.565
5.544
5.522
5.499
5.476
5.451
5.427
5.402
5.376
5.351
5.326
5.301
5.276
5.252
5.228
5.206
5.184
5.164
5.146
5.926
5.92
5.911
5.898
5.883
5.864
5.843
5.818
5.79
5.76
5.726
5.69
5.651
5.609
5.565
5.518
5.469
5.418
5.364
5.309
5.252
5.194
5.134
5.074
5.013
4.953
4.893
4.833
4.775
4.719
4.666
4.615
5.92
5.915
5.905
5.893
5.878
5.859
5.838
5.814
5.787
5.757
5.724
5.688
5.65
5.609
5.566
5.52
5.471
5.421
5.368
5.314
5.258
5.201
5.143
5.084
5.025
4.966
4.907
4.849
4.792
4.737
4.685
4.636
5.913
5.907
5.898
5.886
5.871
5.853
5.833
5.809
5.782
5.753
5.721
5.686
5.648
5.608
5.566
5.521
5.474
5.424
5.373
5.32
5.266
5.21
5.153
5.096
5.038
4.98
4.923
4.867
4.812
4.758
4.708
4.66
5.904
5.899
5.89
5.878
5.863
5.846
5.826
5.803
5.777
5.748
5.717
5.683
5.646
5.607
5.566
5.522
5.476
5.428
5.378
5.327
5.274
5.22
5.165
5.109
5.053
4.997
4.941
4.887
4.834
4.782
4.733
4.687
5.894
5.888
5.88
5.868
5.854
5.837
5.817
5.795
5.77
5.742
5.712
5.679
5.643
5.605
5.565
5.523
5.478
5.432
5.384
5.334
5.283
5.23
5.177
5.123
5.069
5.015
4.962
4.909
4.858
4.808
4.761
4.716
5.881
5.876
5.868
5.856
5.843
5.826
5.807
5.786
5.761
5.735
5.705
5.673
5.639
5.603
5.564
5.523
5.48
5.435
5.389
5.341
5.292
5.241
5.19
5.138
5.086
5.035
4.983
4.933
4.884
4.836
4.791
4.748
5.867
5.862
5.854
5.843
5.83
5.814
5.796
5.775
5.751
5.726
5.697
5.667
5.634
5.599
5.562
5.522
5.481
5.438
5.394
5.348
5.301
5.252
5.203
5.154
5.104
5.055
5.006
4.958
4.911
4.866
4.823
4.782
5.85
5.845
5.837
5.827
5.814
5.799
5.782
5.762
5.74
5.715
5.688
5.659
5.627
5.594
5.558
5.521
5.481
5.441
5.398
5.354
5.309
5.264
5.217
5.17
5.123
5.076
5.03
4.984
4.94
4.897
4.856
4.818
5.831
5.826
5.819
5.809
5.797
5.782
5.766
5.747
5.726
5.702
5.677
5.649
5.619
5.587
5.553
5.518
5.481
5.442
5.402
5.36
5.318
5.274
5.23
5.186
5.142
5.097
5.054
5.011
4.969
4.929
4.891
4.855
5.809
5.804
5.797
5.788
5.777
5.763
5.747
5.729
5.709
5.687
5.663
5.637
5.609
5.579
5.547
5.513
5.478
5.442
5.404
5.365
5.325
5.285
5.243
5.202
5.16
5.119
5.078
5.038
4.999
4.962
4.927
4.893
5.784
5.779
5.773
5.764
5.754
5.741
5.726
5.709
5.691
5.67
5.647
5.623
5.596
5.568
5.538
5.507
5.474
5.44
5.405
5.369
5.332
5.294
5.255
5.217
5.179
5.14
5.103
5.066
5.03
4.996
4.963
4.932
5.755
5.751
5.745
5.737
5.727
5.716
5.702
5.686
5.669
5.65
5.629
5.606
5.581
5.555
5.528
5.498
5.468
5.437
5.404
5.371
5.336
5.302
5.267
5.231
5.196
5.161
5.127
5.093
5.061
5.029
5
4.972
5.723
5.719
5.714
5.707
5.698
5.687
5.675
5.66
5.644
5.627
5.607
5.586
5.564
5.539
5.514
5.487
5.46
5.431
5.401
5.371
5.34
5.308
5.276
5.244
5.213
5.181
5.15
5.12
5.091
5.063
5.037
5.012
5.687
5.685
5.68
5.674
5.666
5.656
5.645
5.632
5.617
5.601
5.583
5.564
5.543
5.521
5.498
5.474
5.449
5.422
5.396
5.368
5.34
5.312
5.283
5.255
5.227
5.199
5.172
5.145
5.12
5.095
5.072
5.051
5.655
5.653
5.649
5.644
5.636
5.628
5.617
5.605
5.592
5.576
5.56
5.542
5.523
5.503
5.482
5.459
5.436
5.413
5.388
5.363
5.338
5.312
5.287
5.261
5.236
5.211
5.187
5.164
5.141
5.12
5.1
5.081
5.846
5.84
5.83
5.817
5.801
5.782
5.76
5.735
5.706
5.675
5.641
5.604
5.564
5.521
5.476
5.428
5.378
5.326
5.272
5.217
5.159
5.101
5.042
4.982
4.921
4.861
4.802
4.744
4.687
4.632
4.58
4.53
5.84
5.834
5.825
5.812
5.797
5.778
5.756
5.731
5.703
5.673
5.639
5.603
5.563
5.522
5.477
5.43
5.382
5.33
5.278
5.223
5.167
5.11
5.051
4.993
4.934
4.875
4.817
4.76
4.704
4.65
4.599
4.551
5.834
5.828
5.819
5.806
5.791
5.773
5.751
5.727
5.7
5.67
5.637
5.601
5.563
5.522
5.478
5.433
5.385
5.335
5.283
5.23
5.175
5.119
5.063
5.005
4.948
4.891
4.834
4.778
4.724
4.672
4.622
4.576
5.826
5.82
5.811
5.799
5.784
5.766
5.745
5.721
5.695
5.666
5.634
5.599
5.562
5.522
5.479
5.435
5.388
5.34
5.29
5.238
5.185
5.13
5.075
5.02
4.964
4.908
4.853
4.799
4.747
4.696
4.648
4.603
5.816
5.811
5.802
5.79
5.775
5.758
5.738
5.715
5.689
5.661
5.63
5.596
5.56
5.521
5.48
5.437
5.392
5.345
5.296
5.246
5.195
5.142
5.089
5.035
4.981
4.928
4.875
4.823
4.772
4.723
4.677
4.634
5.805
5.799
5.791
5.78
5.765
5.749
5.729
5.707
5.682
5.655
5.624
5.592
5.557
5.52
5.48
5.439
5.395
5.35
5.303
5.255
5.205
5.155
5.103
5.052
5
4.948
4.897
4.848
4.799
4.752
4.708
4.667
5.792
5.786
5.778
5.767
5.754
5.737
5.719
5.697
5.673
5.647
5.618
5.587
5.553
5.518
5.48
5.44
5.398
5.355
5.31
5.263
5.216
5.167
5.118
5.069
5.019
4.97
4.922
4.874
4.828
4.783
4.741
4.702
5.776
5.771
5.763
5.753
5.74
5.724
5.706
5.686
5.663
5.638
5.61
5.58
5.548
5.514
5.478
5.44
5.4
5.359
5.316
5.272
5.226
5.18
5.134
5.087
5.04
4.993
4.947
4.902
4.858
4.816
4.776
4.739
5.759
5.754
5.746
5.736
5.724
5.709
5.692
5.673
5.651
5.627
5.601
5.572
5.542
5.51
5.475
5.439
5.401
5.362
5.321
5.28
5.237
5.193
5.149
5.105
5.061
5.016
4.973
4.931
4.889
4.85
4.812
4.777
5.738
5.734
5.726
5.717
5.705
5.692
5.675
5.657
5.637
5.614
5.589
5.562
5.534
5.503
5.471
5.437
5.401
5.364
5.326
5.287
5.247
5.206
5.164
5.123
5.081
5.04
5
4.96
4.922
4.885
4.85
4.817
5.715
5.711
5.704
5.695
5.684
5.671
5.656
5.639
5.62
5.599
5.576
5.55
5.524
5.495
5.465
5.433
5.4
5.365
5.329
5.293
5.255
5.217
5.179
5.141
5.102
5.064
5.026
4.99
4.954
4.92
4.888
4.858
5.689
5.684
5.678
5.67
5.66
5.648
5.634
5.618
5.601
5.581
5.559
5.536
5.511
5.484
5.456
5.427
5.396
5.364
5.331
5.298
5.263
5.228
5.193
5.158
5.122
5.087
5.053
5.02
4.987
4.956
4.927
4.9
5.659
5.655
5.649
5.642
5.633
5.622
5.609
5.595
5.578
5.56
5.54
5.519
5.496
5.472
5.446
5.419
5.39
5.361
5.331
5.3
5.269
5.237
5.205
5.173
5.142
5.11
5.079
5.049
5.02
4.993
4.967
4.942
5.625
5.623
5.618
5.612
5.603
5.594
5.582
5.569
5.554
5.537
5.519
5.499
5.478
5.456
5.433
5.408
5.382
5.356
5.329
5.301
5.273
5.244
5.216
5.187
5.159
5.131
5.104
5.077
5.052
5.027
5.005
4.983
5.595
5.593
5.589
5.583
5.576
5.567
5.556
5.544
5.53
5.515
5.498
5.48
5.461
5.44
5.419
5.396
5.373
5.349
5.324
5.299
5.273
5.247
5.222
5.196
5.171
5.146
5.121
5.098
5.075
5.054
5.034
5.015
5.766
5.76
5.75
5.737
5.721
5.701
5.678
5.652
5.623
5.591
5.556
5.518
5.477
5.434
5.388
5.34
5.289
5.236
5.182
5.125
5.068
5.009
4.95
4.89
4.83
4.771
4.712
4.654
4.598
4.544
4.493
4.445
5.762
5.755
5.746
5.733
5.717
5.697
5.675
5.65
5.621
5.59
5.555
5.518
5.478
5.435
5.39
5.342
5.293
5.241
5.188
5.132
5.076
5.019
4.96
4.902
4.843
4.785
4.727
4.671
4.616
4.563
4.513
4.467
5.756
5.75
5.74
5.727
5.712
5.693
5.671
5.646
5.618
5.587
5.554
5.517
5.478
5.436
5.392
5.346
5.297
5.247
5.194
5.141
5.085
5.029
4.973
4.915
4.858
4.801
4.745
4.69
4.637
4.586
4.537
4.491
5.748
5.743
5.733
5.721
5.706
5.687
5.666
5.641
5.614
5.584
5.551
5.516
5.478
5.437
5.394
5.349
5.302
5.253
5.202
5.149
5.096
5.041
4.986
4.931
4.875
4.82
4.765
4.712
4.66
4.611
4.564
4.52
5.74
5.734
5.725
5.713
5.698
5.68
5.659
5.636
5.609
5.58
5.548
5.514
5.477
5.438
5.396
5.352
5.307
5.259
5.21
5.159
5.107
5.054
5.001
4.947
4.894
4.84
4.788
4.736
4.687
4.639
4.593
4.551
5.73
5.724
5.715
5.704
5.689
5.672
5.652
5.629
5.604
5.575
5.545
5.511
5.476
5.438
5.398
5.355
5.311
5.265
5.218
5.169
5.119
5.068
5.017
4.965
4.914
4.862
4.812
4.763
4.715
4.669
4.625
4.585
5.718
5.712
5.704
5.692
5.678
5.662
5.643
5.621
5.596
5.569
5.54
5.508
5.473
5.437
5.398
5.358
5.316
5.272
5.226
5.179
5.131
5.083
5.034
4.984
4.935
4.886
4.838
4.791
4.745
4.701
4.66
4.621
5.703
5.698
5.69
5.679
5.666
5.65
5.632
5.611
5.587
5.562
5.533
5.503
5.47
5.435
5.398
5.36
5.319
5.277
5.234
5.189
5.144
5.098
5.051
5.004
4.957
4.91
4.865
4.82
4.777
4.735
4.696
4.659
5.687
5.682
5.674
5.664
5.651
5.636
5.619
5.599
5.577
5.552
5.525
5.497
5.465
5.432
5.397
5.361
5.322
5.283
5.242
5.199
5.156
5.112
5.068
5.024
4.98
4.936
4.893
4.85
4.81
4.771
4.734
4.699
5.668
5.663
5.656
5.647
5.635
5.62
5.604
5.585
5.564
5.541
5.516
5.488
5.459
5.428
5.395
5.36
5.324
5.287
5.248
5.209
5.168
5.127
5.086
5.044
5.003
4.962
4.921
4.882
4.844
4.807
4.773
4.741
5.647
5.642
5.635
5.626
5.615
5.602
5.587
5.569
5.549
5.528
5.504
5.478
5.451
5.422
5.391
5.359
5.325
5.29
5.254
5.217
5.179
5.141
5.103
5.064
5.026
4.988
4.95
4.914
4.879
4.845
4.813
4.783
5.622
5.618
5.612
5.603
5.593
5.581
5.567
5.55
5.532
5.512
5.49
5.466
5.441
5.414
5.385
5.355
5.324
5.292
5.258
5.224
5.19
5.154
5.119
5.084
5.048
5.013
4.979
4.946
4.914
4.883
4.854
4.827
5.594
5.59
5.585
5.577
5.568
5.557
5.544
5.529
5.512
5.494
5.473
5.452
5.428
5.403
5.377
5.35
5.321
5.292
5.261
5.23
5.198
5.166
5.134
5.102
5.07
5.039
5.008
4.978
4.949
4.922
4.896
4.872
5.563
5.56
5.555
5.549
5.541
5.531
5.519
5.505
5.49
5.473
5.454
5.434
5.413
5.39
5.367
5.342
5.316
5.289
5.262
5.233
5.205
5.176
5.148
5.119
5.09
5.062
5.035
5.009
4.983
4.959
4.936
4.915
5.534
5.532
5.528
5.523
5.515
5.506
5.495
5.483
5.468
5.453
5.436
5.417
5.398
5.377
5.355
5.332
5.309
5.284
5.259
5.234
5.208
5.182
5.156
5.13
5.104
5.079
5.055
5.031
5.009
4.988
4.967
4.949
5.688
5.682
5.672
5.658
5.642
5.622
5.598
5.571
5.542
5.509
5.473
5.434
5.392
5.348
5.301
5.252
5.2
5.147
5.092
5.035
4.977
4.918
4.859
4.799
4.739
4.68
4.622
4.565
4.51
4.457
4.407
4.36
5.684
5.678
5.668
5.655
5.638
5.618
5.595
5.569
5.54
5.508
5.472
5.434
5.393
5.35
5.304
5.256
5.205
5.153
5.099
5.043
4.986
4.928
4.87
4.811
4.753
4.695
4.638
4.582
4.528
4.476
4.427
4.381
5.679
5.673
5.663
5.65
5.634
5.614
5.592
5.566
5.538
5.506
5.472
5.434
5.394
5.352
5.307
5.26
5.21
5.159
5.106
5.052
4.996
4.94
4.883
4.826
4.769
4.712
4.657
4.602
4.55
4.499
4.451
4.407
5.672
5.666
5.657
5.644
5.628
5.61
5.588
5.563
5.535
5.504
5.47
5.434
5.395
5.354
5.31
5.264
5.216
5.166
5.115
5.062
5.008
4.953
4.898
4.842
4.787
4.732
4.678
4.625
4.574
4.525
4.479
4.436
5.665
5.659
5.649
5.637
5.622
5.603
5.582
5.558
5.531
5.501
5.468
5.433
5.395
5.355
5.313
5.268
5.222
5.174
5.124
5.073
5.02
4.967
4.914
4.86
4.807
4.754
4.701
4.65
4.601
4.554
4.509
4.468
5.655
5.65
5.641
5.629
5.614
5.596
5.576
5.552
5.526
5.497
5.466
5.432
5.395
5.357
5.316
5.273
5.228
5.181
5.133
5.084
5.034
4.983
4.931
4.88
4.828
4.777
4.727
4.678
4.631
4.585
4.542
4.502
5.644
5.639
5.63
5.619
5.604
5.587
5.567
5.545
5.52
5.492
5.462
5.429
5.394
5.357
5.318
5.277
5.234
5.189
5.143
5.096
5.048
4.999
4.949
4.9
4.851
4.802
4.754
4.707
4.662
4.619
4.578
4.54
5.631
5.626
5.618
5.607
5.593
5.577
5.558
5.536
5.512
5.486
5.457
5.426
5.393
5.357
5.32
5.28
5.239
5.197
5.153
5.108
5.062
5.015
4.968
4.921
4.874
4.828
4.782
4.738
4.695
4.654
4.615
4.579
5.616
5.611
5.603
5.593
5.58
5.564
5.546
5.526
5.503
5.478
5.451
5.421
5.389
5.356
5.32
5.283
5.244
5.204
5.162
5.12
5.076
5.032
4.988
4.943
4.899
4.855
4.812
4.77
4.73
4.691
4.655
4.621
5.599
5.594
5.586
5.577
5.564
5.55
5.533
5.514
5.492
5.469
5.443
5.415
5.385
5.353
5.32
5.285
5.248
5.21
5.171
5.131
5.09
5.049
5.007
4.965
4.924
4.883
4.843
4.803
4.766
4.73
4.696
4.664
5.579
5.574
5.567
5.558
5.547
5.533
5.517
5.499
5.479
5.457
5.433
5.407
5.379
5.349
5.318
5.285
5.251
5.215
5.179
5.142
5.104
5.065
5.026
4.988
4.949
4.911
4.874
4.837
4.803
4.769
4.738
4.708
5.556
5.551
5.545
5.537
5.526
5.514
5.499
5.482
5.464
5.443
5.421
5.397
5.371
5.343
5.314
5.284
5.252
5.219
5.186
5.151
5.116
5.081
5.045
5.009
4.974
4.939
4.905
4.872
4.84
4.81
4.781
4.754
5.53
5.526
5.52
5.512
5.503
5.492
5.478
5.463
5.446
5.427
5.406
5.384
5.36
5.335
5.308
5.28
5.251
5.222
5.191
5.159
5.127
5.095
5.063
5.031
4.999
4.967
4.936
4.906
4.878
4.85
4.825
4.801
5.5
5.497
5.493
5.486
5.477
5.467
5.455
5.441
5.426
5.408
5.39
5.369
5.348
5.325
5.3
5.275
5.249
5.222
5.194
5.165
5.137
5.108
5.079
5.05
5.021
4.993
4.966
4.939
4.914
4.89
4.867
4.846
5.473
5.471
5.467
5.461
5.454
5.444
5.433
5.421
5.406
5.39
5.373
5.354
5.334
5.313
5.291
5.268
5.244
5.219
5.194
5.168
5.142
5.116
5.089
5.063
5.038
5.013