/*--------------------------------*- C++ -*----------------------------------*\
  =========                 |
  \\      /  F ield         | OpenFOAM: The Open Source CFD Toolbox
   \\    /   O peration     | Website:  https://openfoam.org
    \\  /    A nd           | Version:  6
     \\/     M anipulation  |
\*---------------------------------------------------------------------------*/
FoamFile
{
    version     2.0;
    format      ascii;
    class       volScalarField;
    location    "10";
    object      Umag;
}
// * * * * * * * * * * * * * * * * * * * * * * * * * * * * * * * * * * * * * //

dimensions      [0 0 0 0 0 0 0];

internalField   nonuniform List<scalar> 
16128
(
5.1e-06
7.933e-06
8.409e-06
8.602e-06
8.805e-06
9.058e-06
9.366e-06
9.733e-06
1.016e-05
1.065e-05
1.121e-05
1.184e-05
1.254e-05
1.332e-05
1.418e-05
1.512e-05
1.615e-05
1.728e-05
1.85e-05
1.982e-05
2.123e-05
2.275e-05
2.436e-05
2.607e-05
2.786e-05
2.973e-05
3.166e-05
3.363e-05
3.563e-05
3.762e-05
3.958e-05
4.147e-05
5.099e-06
7.931e-06
8.407e-06
8.599e-06
8.802e-06
9.054e-06
9.362e-06
9.729e-06
1.016e-05
1.065e-05
1.12e-05
1.183e-05
1.253e-05
1.33e-05
1.416e-05
1.51e-05
1.613e-05
1.725e-05
1.846e-05
1.977e-05
2.118e-05
2.269e-05
2.429e-05
2.598e-05
2.776e-05
2.962e-05
3.153e-05
3.349e-05
3.546e-05
3.744e-05
3.938e-05
4.125e-05
5.097e-06
7.928e-06
8.403e-06
8.595e-06
8.797e-06
9.048e-06
9.355e-06
9.719e-06
1.014e-05
1.063e-05
1.119e-05
1.181e-05
1.25e-05
1.327e-05
1.412e-05
1.505e-05
1.607e-05
1.718e-05
1.839e-05
1.968e-05
2.108e-05
2.257e-05
2.415e-05
2.582e-05
2.757e-05
2.94e-05
3.128e-05
3.32e-05
3.514e-05
3.708e-05
3.898e-05
4.082e-05
5.094e-06
7.922e-06
8.397e-06
8.588e-06
8.789e-06
9.038e-06
9.343e-06
9.705e-06
1.013e-05
1.061e-05
1.116e-05
1.178e-05
1.247e-05
1.323e-05
1.407e-05
1.499e-05
1.6e-05
1.709e-05
1.828e-05
1.955e-05
2.092e-05
2.239e-05
2.394e-05
2.558e-05
2.729e-05
2.908e-05
3.091e-05
3.279e-05
3.468e-05
3.657e-05
3.842e-05
4.02e-05
5.405e-06
8.403e-06
8.898e-06
9.088e-06
9.284e-06
9.527e-06
9.823e-06
1.017e-05
1.058e-05
1.105e-05
1.158e-05
1.218e-05
1.284e-05
1.357e-05
1.438e-05
1.526e-05
1.622e-05
1.726e-05
1.839e-05
1.96e-05
2.089e-05
2.227e-05
2.372e-05
2.525e-05
2.685e-05
2.85e-05
3.02e-05
3.193e-05
3.366e-05
3.539e-05
3.708e-05
3.87e-05
5.404e-06
8.401e-06
8.896e-06
9.086e-06
9.281e-06
9.524e-06
9.819e-06
1.017e-05
1.058e-05
1.104e-05
1.157e-05
1.217e-05
1.283e-05
1.356e-05
1.436e-05
1.524e-05
1.62e-05
1.724e-05
1.836e-05
1.956e-05
2.085e-05
2.221e-05
2.366e-05
2.518e-05
2.677e-05
2.841e-05
3.009e-05
3.181e-05
3.353e-05
3.524e-05
3.691e-05
3.853e-05
5.402e-06
8.397e-06
8.892e-06
9.081e-06
9.276e-06
9.517e-06
9.812e-06
1.016e-05
1.057e-05
1.103e-05
1.156e-05
1.215e-05
1.281e-05
1.353e-05
1.433e-05
1.52e-05
1.615e-05
1.718e-05
1.829e-05
1.948e-05
2.076e-05
2.211e-05
2.354e-05
2.504e-05
2.661e-05
2.823e-05
2.989e-05
3.158e-05
3.327e-05
3.495e-05
3.66e-05
3.818e-05
5.398e-06
8.392e-06
8.886e-06
9.074e-06
9.268e-06
9.508e-06
9.801e-06
1.015e-05
1.055e-05
1.101e-05
1.154e-05
1.212e-05
1.277e-05
1.349e-05
1.428e-05
1.515e-05
1.609e-05
1.71e-05
1.82e-05
1.937e-05
2.063e-05
2.196e-05
2.336e-05
2.484e-05
2.637e-05
2.796e-05
2.959e-05
3.124e-05
3.289e-05
3.454e-05
3.614e-05
3.768e-05
5.697e-06
8.853e-06
9.367e-06
9.554e-06
9.743e-06
9.976e-06
1.026e-05
1.06e-05
1.099e-05
1.143e-05
1.194e-05
1.25e-05
1.313e-05
1.382e-05
1.457e-05
1.54e-05
1.63e-05
1.726e-05
1.83e-05
1.941e-05
2.06e-05
2.185e-05
2.317e-05
2.454e-05
2.597e-05
2.745e-05
2.895e-05
3.047e-05
3.2e-05
3.35e-05
3.497e-05
3.638e-05
5.696e-06
8.852e-06
9.365e-06
9.552e-06
9.74e-06
9.973e-06
1.026e-05
1.059e-05
1.098e-05
1.143e-05
1.193e-05
1.249e-05
1.312e-05
1.381e-05
1.456e-05
1.538e-05
1.628e-05
1.724e-05
1.827e-05
1.938e-05
2.056e-05
2.18e-05
2.311e-05
2.448e-05
2.59e-05
2.737e-05
2.886e-05
3.038e-05
3.189e-05
3.338e-05
3.484e-05
3.624e-05
5.694e-06
8.848e-06
9.361e-06
9.548e-06
9.735e-06
9.967e-06
1.025e-05
1.058e-05
1.097e-05
1.141e-05
1.192e-05
1.248e-05
1.31e-05
1.378e-05
1.453e-05
1.535e-05
1.624e-05
1.719e-05
1.822e-05
1.932e-05
2.048e-05
2.172e-05
2.301e-05
2.437e-05
2.577e-05
2.722e-05
2.869e-05
3.019e-05
3.168e-05
3.315e-05
3.459e-05
3.596e-05
5.691e-06
8.843e-06
9.356e-06
9.541e-06
9.728e-06
9.959e-06
1.024e-05
1.057e-05
1.096e-05
1.14e-05
1.189e-05
1.245e-05
1.307e-05
1.375e-05
1.449e-05
1.53e-05
1.618e-05
1.712e-05
1.814e-05
1.922e-05
2.037e-05
2.159e-05
2.286e-05
2.42e-05
2.558e-05
2.7e-05
2.845e-05
2.991e-05
3.137e-05
3.281e-05
3.422e-05
3.556e-05
5.976e-06
9.283e-06
9.815e-06
9.999e-06
1.018e-05
1.04e-05
1.067e-05
1.1e-05
1.137e-05
1.179e-05
1.227e-05
1.281e-05
1.34e-05
1.405e-05
1.476e-05
1.554e-05
1.637e-05
1.727e-05
1.823e-05
1.926e-05
2.034e-05
2.149e-05
2.268e-05
2.393e-05
2.522e-05
2.654e-05
2.788e-05
2.923e-05
3.058e-05
3.191e-05
3.319e-05
3.442e-05
5.975e-06
9.282e-06
9.813e-06
9.997e-06
1.018e-05
1.04e-05
1.067e-05
1.099e-05
1.136e-05
1.179e-05
1.227e-05
1.28e-05
1.339e-05
1.404e-05
1.475e-05
1.552e-05
1.635e-05
1.725e-05
1.821e-05
1.923e-05
2.031e-05
2.145e-05
2.264e-05
2.388e-05
2.516e-05
2.647e-05
2.781e-05
2.915e-05
3.049e-05
3.181e-05
3.309e-05
3.431e-05
5.973e-06
9.278e-06
9.809e-06
9.993e-06
1.017e-05
1.04e-05
1.067e-05
1.098e-05
1.136e-05
1.178e-05
1.225e-05
1.278e-05
1.337e-05
1.402e-05
1.472e-05
1.549e-05
1.632e-05
1.721e-05
1.816e-05
1.917e-05
2.024e-05
2.137e-05
2.255e-05
2.378e-05
2.505e-05
2.635e-05
2.767e-05
2.9e-05
3.032e-05
3.162e-05
3.288e-05
3.408e-05
5.97e-06
9.274e-06
9.804e-06
9.987e-06
1.017e-05
1.039e-05
1.066e-05
1.097e-05
1.134e-05
1.176e-05
1.224e-05
1.276e-05
1.335e-05
1.399e-05
1.469e-05
1.545e-05
1.627e-05
1.715e-05
1.809e-05
1.909e-05
2.015e-05
2.126e-05
2.243e-05
2.364e-05
2.489e-05
2.617e-05
2.746e-05
2.877e-05
3.007e-05
3.134e-05
3.258e-05
3.376e-05
6.241e-06
9.691e-06
1.024e-05
1.042e-05
1.06e-05
1.081e-05
1.107e-05
1.138e-05
1.173e-05
1.213e-05
1.259e-05
1.31e-05
1.366e-05
1.427e-05
1.494e-05
1.567e-05
1.645e-05
1.728e-05
1.818e-05
1.912e-05
2.012e-05
2.117e-05
2.226e-05
2.34e-05
2.456e-05
2.575e-05
2.696e-05
2.817e-05
2.937e-05
3.054e-05
3.168e-05
3.277e-05
6.24e-06
9.69e-06
1.024e-05
1.042e-05
1.059e-05
1.081e-05
1.107e-05
1.137e-05
1.173e-05
1.213e-05
1.258e-05
1.309e-05
1.365e-05
1.426e-05
1.493e-05
1.565e-05
1.643e-05
1.727e-05
1.816e-05
1.91e-05
2.009e-05
2.114e-05
2.223e-05
2.336e-05
2.452e-05
2.57e-05
2.69e-05
2.81e-05
2.929e-05
3.046e-05
3.159e-05
3.267e-05
6.238e-06
9.687e-06
1.023e-05
1.041e-05
1.059e-05
1.08e-05
1.106e-05
1.136e-05
1.172e-05
1.212e-05
1.257e-05
1.308e-05
1.363e-05
1.424e-05
1.491e-05
1.563e-05
1.64e-05
1.723e-05
1.811e-05
1.905e-05
2.004e-05
2.108e-05
2.216e-05
2.327e-05
2.442e-05
2.56e-05
2.678e-05
2.797e-05
2.915e-05
3.031e-05
3.143e-05
3.249e-05
6.235e-06
9.682e-06
1.023e-05
1.041e-05
1.058e-05
1.079e-05
1.105e-05
1.135e-05
1.171e-05
1.211e-05
1.256e-05
1.306e-05
1.361e-05
1.422e-05
1.488e-05
1.559e-05
1.636e-05
1.718e-05
1.805e-05
1.898e-05
1.996e-05
2.098e-05
2.205e-05
2.315e-05
2.429e-05
2.544e-05
2.661e-05
2.778e-05
2.894e-05
3.008e-05
3.118e-05
3.223e-05
6.491e-06
1.008e-05
1.064e-05
1.082e-05
1.099e-05
1.119e-05
1.144e-05
1.173e-05
1.207e-05
1.246e-05
1.289e-05
1.337e-05
1.39e-05
1.448e-05
1.511e-05
1.579e-05
1.652e-05
1.73e-05
1.813e-05
1.901e-05
1.993e-05
2.09e-05
2.19e-05
2.294e-05
2.4e-05
2.508e-05
2.616e-05
2.725e-05
2.833e-05
2.938e-05
3.039e-05
3.136e-05
6.49e-06
1.007e-05
1.064e-05
1.082e-05
1.098e-05
1.119e-05
1.144e-05
1.173e-05
1.207e-05
1.245e-05
1.288e-05
1.336e-05
1.389e-05
1.447e-05
1.51e-05
1.578e-05
1.651e-05
1.729e-05
1.812e-05
1.899e-05
1.991e-05
2.087e-05
2.187e-05
2.29e-05
2.396e-05
2.503e-05
2.611e-05
2.72e-05
2.827e-05
2.931e-05
3.032e-05
3.128e-05
6.488e-06
1.007e-05
1.063e-05
1.081e-05
1.098e-05
1.118e-05
1.143e-05
1.172e-05
1.206e-05
1.244e-05
1.287e-05
1.335e-05
1.388e-05
1.445e-05
1.508e-05
1.576e-05
1.648e-05
1.726e-05
1.808e-05
1.895e-05
1.986e-05
2.082e-05
2.181e-05
2.283e-05
2.388e-05
2.495e-05
2.602e-05
2.709e-05
2.815e-05
2.919e-05
3.018e-05
3.113e-05
6.485e-06
1.007e-05
1.063e-05
1.081e-05
1.097e-05
1.118e-05
1.142e-05
1.171e-05
1.205e-05
1.243e-05
1.286e-05
1.333e-05
1.386e-05
1.443e-05
1.505e-05
1.572e-05
1.644e-05
1.721e-05
1.803e-05
1.889e-05
1.98e-05
2.074e-05
2.172e-05
2.273e-05
2.377e-05
2.482e-05
2.588e-05
2.693e-05
2.798e-05
2.9e-05
2.998e-05
3.092e-05
6.725e-06
1.044e-05
1.101e-05
1.119e-05
1.135e-05
1.155e-05
1.178e-05
1.206e-05
1.239e-05
1.275e-05
1.317e-05
1.362e-05
1.413e-05
1.467e-05
1.527e-05
1.591e-05
1.66e-05
1.733e-05
1.81e-05
1.892e-05
1.977e-05
2.066e-05
2.159e-05
2.254e-05
2.351e-05
2.449e-05
2.548e-05
2.646e-05
2.743e-05
2.838e-05
2.929e-05
3.015e-05
6.724e-06
1.044e-05
1.101e-05
1.119e-05
1.135e-05
1.155e-05
1.178e-05
1.206e-05
1.238e-05
1.275e-05
1.316e-05
1.362e-05
1.412e-05
1.467e-05
1.526e-05
1.59e-05
1.658e-05
1.731e-05
1.809e-05
1.89e-05
1.975e-05
2.064e-05
2.156e-05
2.251e-05
2.347e-05
2.445e-05
2.544e-05
2.642e-05
2.738e-05
2.833e-05
2.923e-05
3.009e-05
6.722e-06
1.043e-05
1.101e-05
1.118e-05
1.135e-05
1.154e-05
1.178e-05
1.206e-05
1.238e-05
1.274e-05
1.315e-05
1.361e-05
1.411e-05
1.465e-05
1.524e-05
1.588e-05
1.656e-05
1.729e-05
1.806e-05
1.886e-05
1.971e-05
2.06e-05
2.151e-05
2.245e-05
2.341e-05
2.438e-05
2.536e-05
2.633e-05
2.729e-05
2.822e-05
2.912e-05
2.997e-05
6.72e-06
1.043e-05
1.1e-05
1.118e-05
1.134e-05
1.153e-05
1.177e-05
1.205e-05
1.237e-05
1.273e-05
1.314e-05
1.359e-05
1.409e-05
1.463e-05
1.522e-05
1.585e-05
1.653e-05
1.725e-05
1.801e-05
1.881e-05
1.965e-05
2.053e-05
2.143e-05
2.236e-05
2.331e-05
2.428e-05
2.524e-05
2.62e-05
2.715e-05
2.807e-05
2.895e-05
2.979e-05
6.943e-06
1.077e-05
1.136e-05
1.154e-05
1.169e-05
1.188e-05
1.211e-05
1.237e-05
1.268e-05
1.303e-05
1.342e-05
1.386e-05
1.434e-05
1.485e-05
1.542e-05
1.602e-05
1.667e-05
1.735e-05
1.808e-05
1.884e-05
1.964e-05
2.046e-05
2.132e-05
2.219e-05
2.308e-05
2.398e-05
2.489e-05
2.578e-05
2.667e-05
2.752e-05
2.835e-05
2.913e-05
6.942e-06
1.077e-05
1.136e-05
1.153e-05
1.169e-05
1.188e-05
1.21e-05
1.237e-05
1.268e-05
1.303e-05
1.342e-05
1.385e-05
1.433e-05
1.485e-05
1.541e-05
1.601e-05
1.666e-05
1.734e-05
1.806e-05
1.882e-05
1.962e-05
2.044e-05
2.129e-05
2.217e-05
2.305e-05
2.395e-05
2.485e-05
2.575e-05
2.663e-05
2.748e-05
2.83e-05
2.907e-05
6.94e-06
1.077e-05
1.136e-05
1.153e-05
1.169e-05
1.187e-05
1.21e-05
1.237e-05
1.267e-05
1.302e-05
1.341e-05
1.384e-05
1.432e-05
1.484e-05
1.539e-05
1.599e-05
1.664e-05
1.732e-05
1.804e-05
1.879e-05
1.958e-05
2.04e-05
2.125e-05
2.212e-05
2.3e-05
2.389e-05
2.479e-05
2.567e-05
2.655e-05
2.739e-05
2.821e-05
2.897e-05
6.938e-06
1.076e-05
1.135e-05
1.153e-05
1.168e-05
1.187e-05
1.209e-05
1.236e-05
1.266e-05
1.301e-05
1.34e-05
1.383e-05
1.43e-05
1.482e-05
1.537e-05
1.597e-05
1.661e-05
1.728e-05
1.8e-05
1.875e-05
1.953e-05
2.035e-05
2.119e-05
2.205e-05
2.292e-05
2.38e-05
2.469e-05
2.557e-05
2.643e-05
2.727e-05
2.807e-05
2.883e-05
7.145e-06
1.108e-05
1.169e-05
1.186e-05
1.201e-05
1.219e-05
1.24e-05
1.266e-05
1.295e-05
1.329e-05
1.366e-05
1.408e-05
1.453e-05
1.502e-05
1.555e-05
1.612e-05
1.673e-05
1.738e-05
1.806e-05
1.877e-05
1.952e-05
2.029e-05
2.108e-05
2.189e-05
2.272e-05
2.355e-05
2.438e-05
2.52e-05
2.601e-05
2.679e-05
2.754e-05
2.825e-05
7.144e-06
1.108e-05
1.168e-05
1.185e-05
1.2e-05
1.218e-05
1.24e-05
1.266e-05
1.295e-05
1.329e-05
1.366e-05
1.407e-05
1.452e-05
1.502e-05
1.555e-05
1.612e-05
1.672e-05
1.737e-05
1.805e-05
1.876e-05
1.95e-05
2.027e-05
2.106e-05
2.187e-05
2.269e-05
2.352e-05
2.435e-05
2.517e-05
2.597e-05
2.675e-05
2.75e-05
2.82e-05
7.142e-06
1.108e-05
1.168e-05
1.185e-05
1.2e-05
1.218e-05
1.24e-05
1.265e-05
1.295e-05
1.328e-05
1.365e-05
1.406e-05
1.451e-05
1.5e-05
1.553e-05
1.61e-05
1.671e-05
1.735e-05
1.803e-05
1.873e-05
1.947e-05
2.024e-05
2.102e-05
2.183e-05
2.265e-05
2.347e-05
2.429e-05
2.511e-05
2.591e-05
2.668e-05
2.742e-05
2.812e-05
7.14e-06
1.108e-05
1.168e-05
1.185e-05
1.2e-05
1.217e-05
1.239e-05
1.265e-05
1.294e-05
1.327e-05
1.364e-05
1.405e-05
1.45e-05
1.499e-05
1.551e-05
1.608e-05
1.668e-05
1.732e-05
1.799e-05
1.87e-05
1.943e-05
2.019e-05
2.097e-05
2.177e-05
2.258e-05
2.339e-05
2.421e-05
2.502e-05
2.581e-05
2.657e-05
2.731e-05
2.8e-05
7.329e-06
1.137e-05
1.198e-05
1.215e-05
1.229e-05
1.247e-05
1.268e-05
1.292e-05
1.32e-05
1.352e-05
1.388e-05
1.427e-05
1.471e-05
1.517e-05
1.568e-05
1.622e-05
1.68e-05
1.741e-05
1.805e-05
1.872e-05
1.942e-05
2.014e-05
2.088e-05
2.163e-05
2.24e-05
2.317e-05
2.394e-05
2.47e-05
2.544e-05
2.616e-05
2.685e-05
2.749e-05
7.329e-06
1.137e-05
1.198e-05
1.215e-05
1.229e-05
1.246e-05
1.267e-05
1.292e-05
1.32e-05
1.352e-05
1.388e-05
1.427e-05
1.47e-05
1.517e-05
1.567e-05
1.621e-05
1.679e-05
1.74e-05
1.804e-05
1.871e-05
1.94e-05
2.012e-05
2.086e-05
2.161e-05
2.238e-05
2.315e-05
2.391e-05
2.467e-05
2.541e-05
2.613e-05
2.681e-05
2.746e-05
7.327e-06
1.136e-05
1.198e-05
1.215e-05
1.229e-05
1.246e-05
1.267e-05
1.291e-05
1.32e-05
1.351e-05
1.387e-05
1.426e-05
1.469e-05
1.516e-05
1.566e-05
1.62e-05
1.677e-05
1.738e-05
1.802e-05
1.868e-05
1.938e-05
2.009e-05
2.083e-05
2.158e-05
2.234e-05
2.31e-05
2.387e-05
2.462e-05
2.536e-05
2.607e-05
2.675e-05
2.739e-05
7.325e-06
1.136e-05
1.197e-05
1.214e-05
1.228e-05
1.246e-05
1.266e-05
1.291e-05
1.319e-05
1.351e-05
1.386e-05
1.425e-05
1.468e-05
1.515e-05
1.565e-05
1.618e-05
1.675e-05
1.736e-05
1.799e-05
1.865e-05
1.934e-05
2.005e-05
2.078e-05
2.153e-05
2.228e-05
2.304e-05
2.38e-05
2.454e-05
2.527e-05
2.598e-05
2.665e-05
2.729e-05
7.498e-06
1.163e-05
1.225e-05
1.242e-05
1.255e-05
1.272e-05
1.292e-05
1.316e-05
1.343e-05
1.374e-05
1.408e-05
1.445e-05
1.487e-05
1.531e-05
1.579e-05
1.631e-05
1.686e-05
1.743e-05
1.804e-05
1.867e-05
1.933e-05
2.001e-05
2.07e-05
2.141e-05
2.213e-05
2.284e-05
2.356e-05
2.426e-05
2.495e-05
2.562e-05
2.625e-05
2.685e-05
7.497e-06
1.163e-05
1.225e-05
1.241e-05
1.255e-05
1.272e-05
1.292e-05
1.316e-05
1.343e-05
1.373e-05
1.407e-05
1.445e-05
1.486e-05
1.531e-05
1.579e-05
1.63e-05
1.685e-05
1.743e-05
1.803e-05
1.866e-05
1.932e-05
2e-05
2.069e-05
2.139e-05
2.211e-05
2.283e-05
2.354e-05
2.424e-05
2.493e-05
2.559e-05
2.623e-05
2.682e-05
7.495e-06
1.162e-05
1.225e-05
1.241e-05
1.255e-05
1.272e-05
1.292e-05
1.315e-05
1.342e-05
1.373e-05
1.407e-05
1.444e-05
1.485e-05
1.53e-05
1.578e-05
1.629e-05
1.684e-05
1.741e-05
1.801e-05
1.864e-05
1.93e-05
1.997e-05
2.066e-05
2.137e-05
2.208e-05
2.279e-05
2.35e-05
2.42e-05
2.488e-05
2.554e-05
2.617e-05
2.677e-05
7.493e-06
1.162e-05
1.224e-05
1.241e-05
1.255e-05
1.271e-05
1.291e-05
1.315e-05
1.342e-05
1.372e-05
1.406e-05
1.443e-05
1.484e-05
1.529e-05
1.576e-05
1.627e-05
1.682e-05
1.739e-05
1.799e-05
1.862e-05
1.927e-05
1.994e-05
2.062e-05
2.132e-05
2.203e-05
2.274e-05
2.344e-05
2.414e-05
2.481e-05
2.547e-05
2.609e-05
2.668e-05
7.649e-06
1.186e-05
1.249e-05
1.266e-05
1.279e-05
1.295e-05
1.314e-05
1.337e-05
1.363e-05
1.393e-05
1.425e-05
1.462e-05
1.501e-05
1.544e-05
1.59e-05
1.639e-05
1.691e-05
1.746e-05
1.804e-05
1.864e-05
1.926e-05
1.99e-05
2.055e-05
2.122e-05
2.189e-05
2.257e-05
2.324e-05
2.39e-05
2.454e-05
2.516e-05
2.575e-05
2.631e-05
7.648e-06
1.186e-05
1.249e-05
1.265e-05
1.279e-05
1.295e-05
1.314e-05
1.337e-05
1.363e-05
1.392e-05
1.425e-05
1.461e-05
1.501e-05
1.543e-05
1.589e-05
1.638e-05
1.69e-05
1.745e-05
1.803e-05
1.863e-05
1.925e-05
1.989e-05
2.054e-05
2.121e-05
2.188e-05
2.255e-05
2.322e-05
2.388e-05
2.452e-05
2.514e-05
2.573e-05
2.628e-05
7.647e-06
1.186e-05
1.249e-05
1.265e-05
1.279e-05
1.295e-05
1.314e-05
1.336e-05
1.362e-05
1.392e-05
1.425e-05
1.461e-05
1.5e-05
1.543e-05
1.588e-05
1.637e-05
1.689e-05
1.744e-05
1.801e-05
1.861e-05
1.923e-05
1.987e-05
2.052e-05
2.118e-05
2.185e-05
2.252e-05
2.318e-05
2.384e-05
2.448e-05
2.51e-05
2.568e-05
2.623e-05
7.645e-06
1.185e-05
1.248e-05
1.265e-05
1.278e-05
1.294e-05
1.313e-05
1.336e-05
1.362e-05
1.391e-05
1.424e-05
1.46e-05
1.499e-05
1.541e-05
1.587e-05
1.636e-05
1.688e-05
1.742e-05
1.799e-05
1.859e-05
1.92e-05
1.984e-05
2.048e-05
2.114e-05
2.181e-05
2.247e-05
2.314e-05
2.379e-05
2.442e-05
2.503e-05
2.562e-05
2.616e-05
7.783e-06
1.206e-05
1.271e-05
1.287e-05
1.3e-05
1.315e-05
1.334e-05
1.356e-05
1.381e-05
1.409e-05
1.441e-05
1.476e-05
1.514e-05
1.555e-05
1.599e-05
1.646e-05
1.696e-05
1.748e-05
1.803e-05
1.861e-05
1.92e-05
1.981e-05
2.043e-05
2.106e-05
2.169e-05
2.233e-05
2.296e-05
2.358e-05
2.419e-05
2.477e-05
2.532e-05
2.585e-05
7.782e-06
1.206e-05
1.27e-05
1.287e-05
1.3e-05
1.315e-05
1.334e-05
1.356e-05
1.381e-05
1.409e-05
1.441e-05
1.476e-05
1.513e-05
1.554e-05
1.599e-05
1.646e-05
1.695e-05
1.748e-05
1.803e-05
1.86e-05
1.919e-05
1.98e-05
2.042e-05
2.105e-05
2.168e-05
2.232e-05
2.295e-05
2.357e-05
2.417e-05
2.475e-05
2.531e-05
2.582e-05
7.781e-06
1.206e-05
1.27e-05
1.286e-05
1.299e-05
1.315e-05
1.333e-05
1.355e-05
1.38e-05
1.409e-05
1.44e-05
1.475e-05
1.513e-05
1.554e-05
1.598e-05
1.645e-05
1.694e-05
1.747e-05
1.801e-05
1.858e-05
1.917e-05
1.978e-05
2.04e-05
2.102e-05
2.166e-05
2.229e-05
2.292e-05
2.354e-05
2.414e-05
2.472e-05
2.527e-05
2.578e-05
7.779e-06
1.206e-05
1.27e-05
1.286e-05
1.299e-05
1.314e-05
1.333e-05
1.355e-05
1.38e-05
1.408e-05
1.44e-05
1.474e-05
1.512e-05
1.553e-05
1.597e-05
1.643e-05
1.693e-05
1.745e-05
1.799e-05
1.856e-05
1.915e-05
1.975e-05
2.037e-05
2.099e-05
2.162e-05
2.225e-05
2.288e-05
2.349e-05
2.409e-05
2.466e-05
2.521e-05
2.572e-05
7.899e-06
1.224e-05
1.289e-05
1.305e-05
1.318e-05
1.333e-05
1.351e-05
1.372e-05
1.397e-05
1.424e-05
1.455e-05
1.488e-05
1.525e-05
1.564e-05
1.607e-05
1.652e-05
1.7e-05
1.751e-05
1.803e-05
1.858e-05
1.915e-05
1.973e-05
2.032e-05
2.092e-05
2.153e-05
2.213e-05
2.273e-05
2.332e-05
2.389e-05
2.444e-05
2.497e-05
2.546e-05
7.899e-06
1.224e-05
1.289e-05
1.305e-05
1.318e-05
1.333e-05
1.351e-05
1.372e-05
1.396e-05
1.424e-05
1.454e-05
1.488e-05
1.525e-05
1.564e-05
1.607e-05
1.652e-05
1.7e-05
1.75e-05
1.803e-05
1.857e-05
1.914e-05
1.972e-05
2.031e-05
2.091e-05
2.152e-05
2.212e-05
2.272e-05
2.331e-05
2.388e-05
2.443e-05
2.495e-05
2.544e-05
7.898e-06
1.224e-05
1.289e-05
1.305e-05
1.318e-05
1.333e-05
1.351e-05
1.372e-05
1.396e-05
1.423e-05
1.454e-05
1.487e-05
1.524e-05
1.564e-05
1.606e-05
1.651e-05
1.699e-05
1.749e-05
1.802e-05
1.856e-05
1.912e-05
1.97e-05
2.029e-05
2.089e-05
2.15e-05
2.21e-05
2.269e-05
2.328e-05
2.385e-05
2.44e-05
2.492e-05
2.541e-05
7.896e-06
1.224e-05
1.289e-05
1.305e-05
1.317e-05
1.332e-05
1.35e-05
1.371e-05
1.396e-05
1.423e-05
1.453e-05
1.487e-05
1.523e-05
1.563e-05
1.605e-05
1.65e-05
1.697e-05
1.747e-05
1.8e-05
1.854e-05
1.91e-05
1.968e-05
2.027e-05
2.087e-05
2.147e-05
2.206e-05
2.266e-05
2.324e-05
2.381e-05
2.435e-05
2.487e-05
2.536e-05
7.999e-06
1.24e-05
1.305e-05
1.321e-05
1.333e-05
1.348e-05
1.366e-05
1.386e-05
1.41e-05
1.436e-05
1.466e-05
1.499e-05
1.534e-05
1.573e-05
1.614e-05
1.658e-05
1.704e-05
1.752e-05
1.803e-05
1.856e-05
1.911e-05
1.966e-05
2.023e-05
2.081e-05
2.139e-05
2.197e-05
2.254e-05
2.31e-05
2.365e-05
2.418e-05
2.468e-05
2.514e-05
7.999e-06
1.24e-05
1.305e-05
1.321e-05
1.333e-05
1.348e-05
1.365e-05
1.386e-05
1.41e-05
1.436e-05
1.466e-05
1.499e-05
1.534e-05
1.572e-05
1.613e-05
1.657e-05
1.703e-05
1.752e-05
1.803e-05
1.855e-05
1.91e-05
1.966e-05
2.023e-05
2.08e-05
2.138e-05
2.196e-05
2.253e-05
2.309e-05
2.364e-05
2.416e-05
2.466e-05
2.513e-05
7.998e-06
1.24e-05
1.305e-05
1.321e-05
1.333e-05
1.348e-05
1.365e-05
1.386e-05
1.409e-05
1.436e-05
1.466e-05
1.498e-05
1.534e-05
1.572e-05
1.613e-05
1.656e-05
1.703e-05
1.751e-05
1.802e-05
1.854e-05
1.909e-05
1.964e-05
2.021e-05
2.078e-05
2.136e-05
2.194e-05
2.251e-05
2.307e-05
2.361e-05
2.414e-05
2.463e-05
2.51e-05
7.996e-06
1.239e-05
1.305e-05
1.32e-05
1.333e-05
1.347e-05
1.365e-05
1.385e-05
1.409e-05
1.435e-05
1.465e-05
1.497e-05
1.533e-05
1.571e-05
1.612e-05
1.655e-05
1.701e-05
1.75e-05
1.8e-05
1.853e-05
1.907e-05
1.962e-05
2.019e-05
2.076e-05
2.134e-05
2.191e-05
2.248e-05
2.303e-05
2.358e-05
2.41e-05
2.459e-05
2.505e-05
8.082e-06
1.253e-05
1.318e-05
1.334e-05
1.346e-05
1.36e-05
1.378e-05
1.398e-05
1.421e-05
1.447e-05
1.476e-05
1.508e-05
1.542e-05
1.579e-05
1.619e-05
1.662e-05
1.707e-05
1.754e-05
1.803e-05
1.854e-05
1.907e-05
1.961e-05
2.016e-05
2.072e-05
2.128e-05
2.184e-05
2.239e-05
2.293e-05
2.346e-05
2.396e-05
2.444e-05
2.489e-05
8.081e-06
1.252e-05
1.318e-05
1.334e-05
1.346e-05
1.36e-05
1.377e-05
1.398e-05
1.421e-05
1.447e-05
1.476e-05
1.507e-05
1.542e-05
1.579e-05
1.619e-05
1.662e-05
1.707e-05
1.754e-05
1.803e-05
1.854e-05
1.907e-05
1.961e-05
2.016e-05
2.071e-05
2.127e-05
2.183e-05
2.238e-05
2.292e-05
2.344e-05
2.395e-05
2.443e-05
2.488e-05
8.08e-06
1.252e-05
1.318e-05
1.334e-05
1.346e-05
1.36e-05
1.377e-05
1.397e-05
1.42e-05
1.446e-05
1.475e-05
1.507e-05
1.541e-05
1.579e-05
1.619e-05
1.661e-05
1.706e-05
1.753e-05
1.802e-05
1.853e-05
1.906e-05
1.959e-05
2.014e-05
2.07e-05
2.125e-05
2.181e-05
2.236e-05
2.29e-05
2.342e-05
2.393e-05
2.44e-05
2.485e-05
8.079e-06
1.252e-05
1.318e-05
1.333e-05
1.346e-05
1.36e-05
1.377e-05
1.397e-05
1.42e-05
1.446e-05
1.475e-05
1.506e-05
1.541e-05
1.578e-05
1.618e-05
1.66e-05
1.705e-05
1.752e-05
1.801e-05
1.851e-05
1.904e-05
1.958e-05
2.012e-05
2.068e-05
2.123e-05
2.178e-05
2.233e-05
2.287e-05
2.339e-05
2.389e-05
2.437e-05
2.481e-05
8.148e-06
1.263e-05
1.329e-05
1.344e-05
1.356e-05
1.37e-05
1.387e-05
1.407e-05
1.43e-05
1.455e-05
1.483e-05
1.514e-05
1.548e-05
1.585e-05
1.624e-05
1.665e-05
1.709e-05
1.755e-05
1.803e-05
1.853e-05
1.905e-05
1.957e-05
2.011e-05
2.065e-05
2.119e-05
2.174e-05
2.227e-05
2.28e-05
2.331e-05
2.379e-05
2.426e-05
2.469e-05
8.147e-06
1.263e-05
1.329e-05
1.344e-05
1.356e-05
1.37e-05
1.387e-05
1.407e-05
1.429e-05
1.455e-05
1.483e-05
1.514e-05
1.548e-05
1.585e-05
1.624e-05
1.665e-05
1.709e-05
1.755e-05
1.803e-05
1.853e-05
1.904e-05
1.957e-05
2.01e-05
2.064e-05
2.119e-05
2.173e-05
2.226e-05
2.279e-05
2.329e-05
2.378e-05
2.425e-05
2.468e-05
8.146e-06
1.262e-05
1.328e-05
1.344e-05
1.356e-05
1.37e-05
1.387e-05
1.407e-05
1.429e-05
1.455e-05
1.483e-05
1.514e-05
1.548e-05
1.584e-05
1.623e-05
1.665e-05
1.708e-05
1.754e-05
1.802e-05
1.852e-05
1.903e-05
1.956e-05
2.009e-05
2.063e-05
2.117e-05
2.171e-05
2.224e-05
2.277e-05
2.327e-05
2.376e-05
2.422e-05
2.466e-05
8.145e-06
1.262e-05
1.328e-05
1.344e-05
1.356e-05
1.37e-05
1.386e-05
1.406e-05
1.429e-05
1.454e-05
1.482e-05
1.513e-05
1.547e-05
1.583e-05
1.622e-05
1.664e-05
1.707e-05
1.753e-05
1.801e-05
1.851e-05
1.902e-05
1.954e-05
2.007e-05
2.061e-05
2.115e-05
2.169e-05
2.222e-05
2.274e-05
2.325e-05
2.373e-05
2.419e-05
2.462e-05
8.197e-06
1.27e-05
1.336e-05
1.352e-05
1.364e-05
1.378e-05
1.394e-05
1.414e-05
1.436e-05
1.461e-05
1.489e-05
1.52e-05
1.553e-05
1.589e-05
1.627e-05
1.668e-05
1.711e-05
1.756e-05
1.804e-05
1.852e-05
1.903e-05
1.954e-05
2.007e-05
2.06e-05
2.113e-05
2.166e-05
2.219e-05
2.27e-05
2.32e-05
2.367e-05
2.413e-05
2.455e-05
8.196e-06
1.27e-05
1.336e-05
1.352e-05
1.364e-05
1.378e-05
1.394e-05
1.414e-05
1.436e-05
1.461e-05
1.489e-05
1.519e-05
1.553e-05
1.589e-05
1.627e-05
1.668e-05
1.711e-05
1.756e-05
1.803e-05
1.852e-05
1.902e-05
1.954e-05
2.006e-05
2.059e-05
2.112e-05
2.165e-05
2.218e-05
2.269e-05
2.319e-05
2.366e-05
2.412e-05
2.454e-05
8.195e-06
1.27e-05
1.336e-05
1.352e-05
1.364e-05
1.377e-05
1.394e-05
1.413e-05
1.436e-05
1.461e-05
1.488e-05
1.519e-05
1.552e-05
1.588e-05
1.626e-05
1.667e-05
1.71e-05
1.755e-05
1.802e-05
1.851e-05
1.901e-05
1.953e-05
2.005e-05
2.058e-05
2.111e-05
2.164e-05
2.216e-05
2.267e-05
2.317e-05
2.364e-05
2.41e-05
2.452e-05
8.194e-06
1.27e-05
1.336e-05
1.352e-05
1.363e-05
1.377e-05
1.394e-05
1.413e-05
1.435e-05
1.46e-05
1.488e-05
1.518e-05
1.552e-05
1.587e-05
1.626e-05
1.666e-05
1.709e-05
1.754e-05
1.801e-05
1.85e-05
1.9e-05
1.951e-05
2.003e-05
2.056e-05
2.109e-05
2.162e-05
2.214e-05
2.265e-05
2.314e-05
2.362e-05
2.406e-05
2.449e-05
8.228e-06
1.275e-05
1.342e-05
1.357e-05
1.369e-05
1.382e-05
1.399e-05
1.418e-05
1.44e-05
1.465e-05
1.493e-05
1.523e-05
1.556e-05
1.591e-05
1.629e-05
1.67e-05
1.712e-05
1.757e-05
1.804e-05
1.852e-05
1.902e-05
1.953e-05
2.004e-05
2.057e-05
2.109e-05
2.161e-05
2.213e-05
2.264e-05
2.313e-05
2.36e-05
2.404e-05
2.446e-05
8.228e-06
1.275e-05
1.341e-05
1.357e-05
1.369e-05
1.382e-05
1.399e-05
1.418e-05
1.44e-05
1.465e-05
1.492e-05
1.523e-05
1.556e-05
1.591e-05
1.629e-05
1.669e-05
1.712e-05
1.757e-05
1.803e-05
1.852e-05
1.901e-05
1.952e-05
2.004e-05
2.056e-05
2.108e-05
2.161e-05
2.212e-05
2.263e-05
2.312e-05
2.359e-05
2.403e-05
2.445e-05
8.227e-06
1.275e-05
1.341e-05
1.357e-05
1.368e-05
1.382e-05
1.398e-05
1.418e-05
1.44e-05
1.464e-05
1.492e-05
1.522e-05
1.555e-05
1.591e-05
1.629e-05
1.669e-05
1.711e-05
1.756e-05
1.802e-05
1.851e-05
1.9e-05
1.951e-05
2.003e-05
2.055e-05
2.107e-05
2.159e-05
2.211e-05
2.261e-05
2.31e-05
2.357e-05
2.401e-05
2.443e-05
8.225e-06
1.275e-05
1.341e-05
1.356e-05
1.368e-05
1.382e-05
1.398e-05
1.417e-05
1.439e-05
1.464e-05
1.492e-05
1.522e-05
1.555e-05
1.59e-05
1.628e-05
1.668e-05
1.71e-05
1.755e-05
1.801e-05
1.849e-05
1.899e-05
1.95e-05
2.001e-05
2.053e-05
2.105e-05
2.157e-05
2.208e-05
2.259e-05
2.307e-05
2.354e-05
2.398e-05
2.44e-05
8.243e-06
1.277e-05
1.344e-05
1.359e-05
1.371e-05
1.385e-05
1.401e-05
1.42e-05
1.442e-05
1.467e-05
1.494e-05
1.524e-05
1.557e-05
1.592e-05
1.63e-05
1.67e-05
1.713e-05
1.757e-05
1.804e-05
1.852e-05
1.901e-05
1.952e-05
2.003e-05
2.055e-05
2.107e-05
2.159e-05
2.211e-05
2.261e-05
2.31e-05
2.356e-05
2.401e-05
2.442e-05
8.243e-06
1.277e-05
1.344e-05
1.359e-05
1.371e-05
1.384e-05
1.401e-05
1.42e-05
1.442e-05
1.467e-05
1.494e-05
1.524e-05
1.557e-05
1.592e-05
1.63e-05
1.67e-05
1.713e-05
1.757e-05
1.803e-05
1.851e-05
1.901e-05
1.951e-05
2.003e-05
2.055e-05
2.107e-05
2.159e-05
2.21e-05
2.26e-05
2.309e-05
2.355e-05
2.4e-05
2.441e-05
8.242e-06
1.277e-05
1.344e-05
1.359e-05
1.371e-05
1.384e-05
1.401e-05
1.42e-05
1.442e-05
1.466e-05
1.494e-05
1.524e-05
1.557e-05
1.592e-05
1.63e-05
1.67e-05
1.712e-05
1.756e-05
1.803e-05
1.85e-05
1.9e-05
1.95e-05
2.002e-05
2.053e-05
2.105e-05
2.157e-05
2.208e-05
2.258e-05
2.307e-05
2.354e-05
2.398e-05
2.439e-05
8.24e-06
1.277e-05
1.343e-05
1.359e-05
1.37e-05
1.384e-05
1.4e-05
1.419e-05
1.441e-05
1.466e-05
1.493e-05
1.523e-05
1.556e-05
1.591e-05
1.629e-05
1.669e-05
1.711e-05
1.755e-05
1.801e-05
1.849e-05
1.898e-05
1.949e-05
2e-05
2.052e-05
2.104e-05
2.155e-05
2.206e-05
2.256e-05
2.304e-05
2.351e-05
2.395e-05
2.436e-05
3.088e-05
2.901e-05
2.999e-05
2.72e-05
2.818e-05
2.91e-05
2.487e-05
2.582e-05
2.672e-05
2.757e-05
1.991e-05
2.071e-05
2.149e-05
2.223e-05
2.292e-05
8.819e-06
9.198e-06
9.568e-06
9.924e-06
1.026e-05
1.058e-05
5.089e-06
7.915e-06
8.389e-06
8.579e-06
8.778e-06
9.026e-06
9.329e-06
9.688e-06
1.011e-05
1.059e-05
1.113e-05
1.174e-05
1.242e-05
1.317e-05
1.4e-05
1.491e-05
1.59e-05
1.697e-05
1.814e-05
1.939e-05
2.073e-05
2.216e-05
2.367e-05
2.527e-05
2.694e-05
2.867e-05
3.045e-05
3.226e-05
3.409e-05
3.591e-05
3.769e-05
3.941e-05
5.084e-06
7.907e-06
8.38e-06
8.568e-06
8.766e-06
9.012e-06
9.311e-06
9.667e-06
1.008e-05
1.055e-05
1.109e-05
1.169e-05
1.236e-05
1.31e-05
1.392e-05
1.481e-05
1.578e-05
1.684e-05
1.797e-05
1.919e-05
2.05e-05
2.189e-05
2.336e-05
2.49e-05
2.651e-05
2.818e-05
2.99e-05
3.164e-05
3.34e-05
3.514e-05
3.684e-05
3.849e-05
5.078e-06
7.898e-06
8.369e-06
8.556e-06
8.752e-06
8.995e-06
9.291e-06
9.643e-06
1.005e-05
1.052e-05
1.105e-05
1.164e-05
1.23e-05
1.303e-05
1.383e-05
1.47e-05
1.565e-05
1.668e-05
1.779e-05
1.897e-05
2.024e-05
2.158e-05
2.3e-05
2.449e-05
2.604e-05
2.764e-05
2.929e-05
3.095e-05
3.262e-05
3.428e-05
3.59e-05
3.746e-05
5.072e-06
7.888e-06
8.358e-06
8.543e-06
8.737e-06
8.977e-06
9.27e-06
9.617e-06
1.002e-05
1.048e-05
1.1e-05
1.158e-05
1.223e-05
1.295e-05
1.373e-05
1.458e-05
1.551e-05
1.651e-05
1.758e-05
1.873e-05
1.996e-05
2.126e-05
2.262e-05
2.405e-05
2.553e-05
2.706e-05
2.863e-05
3.021e-05
3.18e-05
3.336e-05
3.489e-05
3.636e-05
5.065e-06
7.877e-06
8.345e-06
8.529e-06
8.721e-06
8.958e-06
9.247e-06
9.589e-06
9.987e-06
1.044e-05
1.095e-05
1.153e-05
1.216e-05
1.286e-05
1.362e-05
1.446e-05
1.536e-05
1.633e-05
1.737e-05
1.849e-05
1.967e-05
2.092e-05
2.223e-05
2.359e-05
2.501e-05
2.646e-05
2.795e-05
2.944e-05
3.094e-05
3.241e-05
3.385e-05
3.522e-05
5.059e-06
7.866e-06
8.333e-06
8.515e-06
8.705e-06
8.939e-06
9.224e-06
9.562e-06
9.953e-06
1.04e-05
1.09e-05
1.146e-05
1.209e-05
1.277e-05
1.352e-05
1.433e-05
1.521e-05
1.615e-05
1.716e-05
1.824e-05
1.937e-05
2.057e-05
2.183e-05
2.313e-05
2.448e-05
2.586e-05
2.726e-05
2.868e-05
3.008e-05
3.147e-05
3.281e-05
3.409e-05
5.052e-06
7.855e-06
8.32e-06
8.501e-06
8.688e-06
8.92e-06
9.201e-06
9.534e-06
9.919e-06
1.036e-05
1.085e-05
1.141e-05
1.202e-05
1.268e-05
1.341e-05
1.421e-05
1.506e-05
1.597e-05
1.695e-05
1.799e-05
1.908e-05
2.023e-05
2.143e-05
2.268e-05
2.396e-05
2.527e-05
2.66e-05
2.793e-05
2.925e-05
3.055e-05
3.18e-05
3.3e-05
5.045e-06
7.844e-06
8.308e-06
8.487e-06
8.673e-06
8.901e-06
9.179e-06
9.507e-06
9.887e-06
1.032e-05
1.081e-05
1.135e-05
1.195e-05
1.26e-05
1.331e-05
1.409e-05
1.492e-05
1.58e-05
1.675e-05
1.775e-05
1.881e-05
1.991e-05
2.106e-05
2.225e-05
2.347e-05
2.471e-05
2.597e-05
2.722e-05
2.846e-05
2.968e-05
3.085e-05
3.196e-05
5.039e-06
7.834e-06
8.297e-06
8.474e-06
8.658e-06
8.884e-06
9.158e-06
9.482e-06
9.857e-06
1.028e-05
1.076e-05
1.129e-05
1.188e-05
1.252e-05
1.322e-05
1.397e-05
1.478e-05
1.565e-05
1.656e-05
1.753e-05
1.855e-05
1.961e-05
2.072e-05
2.185e-05
2.302e-05
2.42e-05
2.538e-05
2.657e-05
2.774e-05
2.888e-05
2.998e-05
3.102e-05
5.032e-06
7.823e-06
8.285e-06
8.461e-06
8.642e-06
8.866e-06
9.137e-06
9.457e-06
9.827e-06
1.025e-05
1.072e-05
1.124e-05
1.182e-05
1.245e-05
1.313e-05
1.387e-05
1.466e-05
1.55e-05
1.639e-05
1.733e-05
1.832e-05
1.934e-05
2.041e-05
2.15e-05
2.261e-05
2.373e-05
2.486e-05
2.599e-05
2.709e-05
2.817e-05
2.92e-05
3.017e-05
5.023e-06
7.806e-06
8.265e-06
8.44e-06
8.619e-06
8.841e-06
9.109e-06
9.426e-06
9.791e-06
1.021e-05
1.067e-05
1.119e-05
1.176e-05
1.237e-05
1.304e-05
1.377e-05
1.454e-05
1.536e-05
1.623e-05
1.714e-05
1.81e-05
1.909e-05
2.012e-05
2.117e-05
2.224e-05
2.331e-05
2.439e-05
2.546e-05
2.651e-05
2.753e-05
2.851e-05
2.943e-05
4.992e-06
7.747e-06
8.199e-06
8.371e-06
8.548e-06
8.767e-06
9.031e-06
9.343e-06
9.702e-06
1.011e-05
1.057e-05
1.107e-05
1.163e-05
1.224e-05
1.289e-05
1.36e-05
1.435e-05
1.516e-05
1.6e-05
1.689e-05
1.781e-05
1.878e-05
1.976e-05
2.078e-05
2.18e-05
2.284e-05
2.387e-05
2.489e-05