/*--------------------------------*- C++ -*----------------------------------*\
  =========                 |
  \\      /  F ield         | OpenFOAM: The Open Source CFD Toolbox
   \\    /   O peration     | Website:  https://openfoam.org
    \\  /    A nd           | Version:  6
     \\/     M anipulation  |
\*---------------------------------------------------------------------------*/
FoamFile
{
    version     2.0;
    format      ascii;
    class       volVectorField;
    location    "15";
    object      D;
}
// * * * * * * * * * * * * * * * * * * * * * * * * * * * * * * * * * * * * * //

dimensions      [0 1 0 0 0 0 0];

internalField   nonuniform List<vector> 
16128
(
(-2.553e-06 -9.47e-08 -1.21e-06)
(-2.491e-06 -9.557e-08 -1.207e-06)
(-2.428e-06 -9.659e-08 -1.205e-06)
(-2.364e-06 -9.764e-08 -1.204e-06)
(-2.298e-06 -9.868e-08 -1.203e-06)
(-2.232e-06 -9.967e-08 -1.203e-06)
(-2.165e-06 -1.006e-07 -1.203e-06)
(-2.097e-06 -1.014e-07 -1.203e-06)
(-2.028e-06 -1.022e-07 -1.204e-06)
(-1.959e-06 -1.028e-07 -1.204e-06)
(-1.89e-06 -1.034e-07 -1.205e-06)
(-1.821e-06 -1.038e-07 -1.206e-06)
(-1.751e-06 -1.041e-07 -1.207e-06)
(-1.682e-06 -1.044e-07 -1.209e-06)
(-1.613e-06 -1.046e-07 -1.21e-06)
(-1.545e-06 -1.047e-07 -1.211e-06)
(-1.477e-06 -1.047e-07 -1.212e-06)
(-1.409e-06 -1.047e-07 -1.213e-06)
(-1.342e-06 -1.047e-07 -1.214e-06)
(-1.276e-06 -1.046e-07 -1.215e-06)
(-1.21e-06 -1.045e-07 -1.216e-06)
(-1.145e-06 -1.044e-07 -1.217e-06)
(-1.08e-06 -1.043e-07 -1.218e-06)
(-1.015e-06 -1.042e-07 -1.218e-06)
(-9.514e-07 -1.04e-07 -1.219e-06)
(-8.88e-07 -1.039e-07 -1.219e-06)
(-8.25e-07 -1.037e-07 -1.22e-06)
(-7.625e-07 -1.036e-07 -1.22e-06)
(-7.002e-07 -1.035e-07 -1.22e-06)
(-6.383e-07 -1.034e-07 -1.22e-06)
(-5.767e-07 -1.032e-07 -1.22e-06)
(-5.154e-07 -1.031e-07 -1.221e-06)
(-2.552e-06 -2.838e-07 -1.209e-06)
(-2.49e-06 -2.867e-07 -1.206e-06)
(-2.427e-06 -2.898e-07 -1.204e-06)
(-2.362e-06 -2.929e-07 -1.203e-06)
(-2.297e-06 -2.96e-07 -1.202e-06)
(-2.23e-06 -2.99e-07 -1.202e-06)
(-2.163e-06 -3.018e-07 -1.202e-06)
(-2.095e-06 -3.043e-07 -1.202e-06)
(-2.026e-06 -3.066e-07 -1.203e-06)
(-1.957e-06 -3.085e-07 -1.203e-06)
(-1.888e-06 -3.101e-07 -1.204e-06)
(-1.819e-06 -3.114e-07 -1.205e-06)
(-1.75e-06 -3.124e-07 -1.206e-06)
(-1.68e-06 -3.132e-07 -1.208e-06)
(-1.612e-06 -3.137e-07 -1.209e-06)
(-1.543e-06 -3.14e-07 -1.21e-06)
(-1.475e-06 -3.142e-07 -1.211e-06)
(-1.408e-06 -3.142e-07 -1.212e-06)
(-1.341e-06 -3.141e-07 -1.213e-06)
(-1.275e-06 -3.139e-07 -1.214e-06)
(-1.209e-06 -3.136e-07 -1.215e-06)
(-1.143e-06 -3.132e-07 -1.216e-06)
(-1.079e-06 -3.129e-07 -1.217e-06)
(-1.014e-06 -3.124e-07 -1.217e-06)
(-9.506e-07 -3.12e-07 -1.218e-06)
(-8.872e-07 -3.116e-07 -1.218e-06)
(-8.243e-07 -3.112e-07 -1.219e-06)
(-7.618e-07 -3.108e-07 -1.219e-06)
(-6.997e-07 -3.104e-07 -1.219e-06)
(-6.378e-07 -3.1e-07 -1.219e-06)
(-5.763e-07 -3.097e-07 -1.219e-06)
(-5.15e-07 -3.093e-07 -1.22e-06)
(-2.548e-06 -4.727e-07 -1.206e-06)
(-2.486e-06 -4.776e-07 -1.204e-06)
(-2.423e-06 -4.829e-07 -1.202e-06)
(-2.359e-06 -4.882e-07 -1.201e-06)
(-2.293e-06 -4.934e-07 -1.2e-06)
(-2.227e-06 -4.984e-07 -1.2e-06)
(-2.159e-06 -5.031e-07 -1.2e-06)
(-2.091e-06 -5.073e-07 -1.2e-06)
(-2.022e-06 -5.11e-07 -1.201e-06)
(-1.953e-06 -5.142e-07 -1.201e-06)
(-1.884e-06 -5.168e-07 -1.202e-06)
(-1.815e-06 -5.19e-07 -1.203e-06)
(-1.746e-06 -5.206e-07 -1.204e-06)
(-1.677e-06 -5.219e-07 -1.205e-06)
(-1.608e-06 -5.227e-07 -1.207e-06)
(-1.54e-06 -5.233e-07 -1.208e-06)
(-1.472e-06 -5.235e-07 -1.209e-06)
(-1.405e-06 -5.235e-07 -1.21e-06)
(-1.338e-06 -5.233e-07 -1.211e-06)
(-1.272e-06 -5.229e-07 -1.212e-06)
(-1.206e-06 -5.224e-07 -1.213e-06)
(-1.141e-06 -5.219e-07 -1.214e-06)
(-1.076e-06 -5.212e-07 -1.215e-06)
(-1.012e-06 -5.206e-07 -1.215e-06)
(-9.487e-07 -5.199e-07 -1.216e-06)
(-8.856e-07 -5.192e-07 -1.216e-06)
(-8.228e-07 -5.185e-07 -1.217e-06)
(-7.604e-07 -5.178e-07 -1.217e-06)
(-6.984e-07 -5.171e-07 -1.217e-06)
(-6.367e-07 -5.165e-07 -1.217e-06)
(-5.753e-07 -5.159e-07 -1.217e-06)
(-5.141e-07 -5.154e-07 -1.217e-06)
(-2.543e-06 -6.614e-07 -1.203e-06)
(-2.481e-06 -6.684e-07 -1.201e-06)
(-2.417e-06 -6.758e-07 -1.199e-06)
(-2.353e-06 -6.834e-07 -1.198e-06)
(-2.287e-06 -6.908e-07 -1.197e-06)
(-2.221e-06 -6.978e-07 -1.197e-06)
(-2.153e-06 -7.044e-07 -1.197e-06)
(-2.085e-06 -7.102e-07 -1.197e-06)
(-2.016e-06 -7.154e-07 -1.198e-06)
(-1.947e-06 -7.198e-07 -1.198e-06)
(-1.878e-06 -7.235e-07 -1.199e-06)
(-1.809e-06 -7.264e-07 -1.2e-06)
(-1.74e-06 -7.287e-07 -1.201e-06)
(-1.671e-06 -7.304e-07 -1.202e-06)
(-1.603e-06 -7.316e-07 -1.203e-06)
(-1.535e-06 -7.323e-07 -1.205e-06)
(-1.467e-06 -7.326e-07 -1.206e-06)
(-1.4e-06 -7.325e-07 -1.207e-06)
(-1.334e-06 -7.322e-07 -1.208e-06)
(-1.268e-06 -7.317e-07 -1.209e-06)
(-1.202e-06 -7.31e-07 -1.21e-06)
(-1.138e-06 -7.302e-07 -1.21e-06)
(-1.073e-06 -7.293e-07 -1.211e-06)
(-1.009e-06 -7.284e-07 -1.212e-06)
(-9.46e-07 -7.274e-07 -1.212e-06)
(-8.83e-07 -7.264e-07 -1.213e-06)
(-8.205e-07 -7.254e-07 -1.213e-06)
(-7.584e-07 -7.245e-07 -1.213e-06)
(-6.965e-07 -7.236e-07 -1.214e-06)
(-6.35e-07 -7.228e-07 -1.214e-06)
(-5.738e-07 -7.22e-07 -1.214e-06)
(-5.128e-07 -7.212e-07 -1.214e-06)
(-2.556e-06 -9.455e-08 -1.146e-06)
(-2.494e-06 -9.543e-08 -1.143e-06)
(-2.431e-06 -9.646e-08 -1.142e-06)
(-2.367e-06 -9.753e-08 -1.141e-06)
(-2.301e-06 -9.857e-08 -1.14e-06)
(-2.235e-06 -9.957e-08 -1.139e-06)
(-2.167e-06 -1.005e-07 -1.139e-06)
(-2.099e-06 -1.013e-07 -1.139e-06)
(-2.03e-06 -1.021e-07 -1.14e-06)
(-1.961e-06 -1.027e-07 -1.141e-06)
(-1.892e-06 -1.033e-07 -1.141e-06)
(-1.822e-06 -1.037e-07 -1.142e-06)
(-1.753e-06 -1.041e-07 -1.143e-06)
(-1.684e-06 -1.043e-07 -1.144e-06)
(-1.615e-06 -1.045e-07 -1.145e-06)
(-1.546e-06 -1.046e-07 -1.146e-06)
(-1.478e-06 -1.046e-07 -1.147e-06)
(-1.41e-06 -1.046e-07 -1.148e-06)
(-1.343e-06 -1.046e-07 -1.149e-06)
(-1.277e-06 -1.045e-07 -1.15e-06)
(-1.211e-06 -1.044e-07 -1.151e-06)
(-1.145e-06 -1.043e-07 -1.152e-06)
(-1.08e-06 -1.042e-07 -1.153e-06)
(-1.016e-06 -1.04e-07 -1.153e-06)
(-9.516e-07 -1.039e-07 -1.154e-06)
(-8.881e-07 -1.038e-07 -1.154e-06)
(-8.251e-07 -1.036e-07 -1.154e-06)
(-7.624e-07 -1.035e-07 -1.155e-06)
(-7.002e-07 -1.033e-07 -1.155e-06)
(-6.382e-07 -1.032e-07 -1.155e-06)
(-5.766e-07 -1.031e-07 -1.155e-06)
(-5.152e-07 -1.03e-07 -1.155e-06)
(-2.555e-06 -2.834e-07 -1.145e-06)
(-2.493e-06 -2.863e-07 -1.143e-06)
(-2.429e-06 -2.894e-07 -1.141e-06)
(-2.365e-06 -2.926e-07 -1.14e-06)
(-2.299e-06 -2.957e-07 -1.139e-06)
(-2.233e-06 -2.987e-07 -1.138e-06)
(-2.165e-06 -3.015e-07 -1.138e-06)
(-2.097e-06 -3.041e-07 -1.139e-06)
(-2.029e-06 -3.063e-07 -1.139e-06)
(-1.959e-06 -3.082e-07 -1.14e-06)
(-1.89e-06 -3.098e-07 -1.14e-06)
(-1.821e-06 -3.111e-07 -1.141e-06)
(-1.751e-06 -3.121e-07 -1.142e-06)
(-1.682e-06 -3.129e-07 -1.143e-06)
(-1.613e-06 -3.134e-07 -1.144e-06)
(-1.545e-06 -3.137e-07 -1.145e-06)
(-1.477e-06 -3.139e-07 -1.146e-06)
(-1.409e-06 -3.139e-07 -1.147e-06)
(-1.342e-06 -3.137e-07 -1.148e-06)
(-1.275e-06 -3.135e-07 -1.149e-06)
(-1.209e-06 -3.132e-07 -1.15e-06)
(-1.144e-06 -3.129e-07 -1.151e-06)
(-1.079e-06 -3.125e-07 -1.152e-06)
(-1.015e-06 -3.121e-07 -1.152e-06)
(-9.508e-07 -3.116e-07 -1.153e-06)
(-8.874e-07 -3.112e-07 -1.153e-06)
(-8.244e-07 -3.108e-07 -1.154e-06)
(-7.618e-07 -3.104e-07 -1.154e-06)
(-6.996e-07 -3.1e-07 -1.154e-06)
(-6.377e-07 -3.096e-07 -1.154e-06)
(-5.761e-07 -3.092e-07 -1.154e-06)
(-5.148e-07 -3.089e-07 -1.154e-06)
(-2.551e-06 -4.72e-07 -1.143e-06)
(-2.489e-06 -4.77e-07 -1.14e-06)
(-2.426e-06 -4.822e-07 -1.139e-06)
(-2.361e-06 -4.876e-07 -1.138e-06)
(-2.296e-06 -4.929e-07 -1.137e-06)
(-2.229e-06 -4.979e-07 -1.137e-06)
(-2.162e-06 -5.026e-07 -1.136e-06)
(-2.093e-06 -5.068e-07 -1.137e-06)
(-2.025e-06 -5.105e-07 -1.137e-06)
(-1.955e-06 -5.137e-07 -1.138e-06)
(-1.886e-06 -5.164e-07 -1.139e-06)
(-1.817e-06 -5.185e-07 -1.139e-06)
(-1.747e-06 -5.202e-07 -1.14e-06)
(-1.678e-06 -5.214e-07 -1.141e-06)
(-1.61e-06 -5.223e-07 -1.142e-06)
(-1.541e-06 -5.228e-07 -1.143e-06)
(-1.473e-06 -5.23e-07 -1.144e-06)
(-1.406e-06 -5.23e-07 -1.145e-06)
(-1.339e-06 -5.227e-07 -1.146e-06)
(-1.273e-06 -5.224e-07 -1.147e-06)
(-1.207e-06 -5.219e-07 -1.148e-06)
(-1.142e-06 -5.213e-07 -1.149e-06)
(-1.077e-06 -5.206e-07 -1.15e-06)
(-1.013e-06 -5.199e-07 -1.15e-06)
(-9.489e-07 -5.192e-07 -1.151e-06)
(-8.857e-07 -5.185e-07 -1.151e-06)
(-8.229e-07 -5.178e-07 -1.151e-06)
(-7.604e-07 -5.171e-07 -1.152e-06)
(-6.983e-07 -5.164e-07 -1.152e-06)
(-6.366e-07 -5.158e-07 -1.152e-06)
(-5.751e-07 -5.152e-07 -1.152e-06)
(-5.139e-07 -5.147e-07 -1.152e-06)
(-2.545e-06 -6.603e-07 -1.139e-06)
(-2.483e-06 -6.674e-07 -1.137e-06)
(-2.42e-06 -6.75e-07 -1.136e-06)
(-2.356e-06 -6.826e-07 -1.135e-06)
(-2.29e-06 -6.9e-07 -1.134e-06)
(-2.223e-06 -6.971e-07 -1.134e-06)
(-2.156e-06 -7.037e-07 -1.134e-06)
(-2.087e-06 -7.096e-07 -1.134e-06)
(-2.018e-06 -7.148e-07 -1.134e-06)
(-1.949e-06 -7.192e-07 -1.135e-06)
(-1.88e-06 -7.229e-07 -1.136e-06)
(-1.811e-06 -7.258e-07 -1.137e-06)
(-1.741e-06 -7.281e-07 -1.137e-06)
(-1.673e-06 -7.298e-07 -1.138e-06)
(-1.604e-06 -7.309e-07 -1.139e-06)
(-1.536e-06 -7.316e-07 -1.141e-06)
(-1.468e-06 -7.318e-07 -1.142e-06)
(-1.401e-06 -7.318e-07 -1.142e-06)
(-1.335e-06 -7.314e-07 -1.143e-06)
(-1.268e-06 -7.309e-07 -1.144e-06)
(-1.203e-06 -7.302e-07 -1.145e-06)
(-1.138e-06 -7.294e-07 -1.146e-06)
(-1.074e-06 -7.284e-07 -1.147e-06)
(-1.01e-06 -7.275e-07 -1.147e-06)
(-9.462e-07 -7.265e-07 -1.148e-06)
(-8.832e-07 -7.255e-07 -1.148e-06)
(-8.206e-07 -7.245e-07 -1.148e-06)
(-7.583e-07 -7.235e-07 -1.149e-06)
(-6.965e-07 -7.226e-07 -1.149e-06)
(-6.349e-07 -7.217e-07 -1.149e-06)
(-5.737e-07 -7.209e-07 -1.149e-06)
(-5.126e-07 -7.202e-07 -1.149e-06)
(-2.559e-06 -9.439e-08 -1.082e-06)
(-2.497e-06 -9.528e-08 -1.08e-06)
(-2.434e-06 -9.633e-08 -1.078e-06)
(-2.369e-06 -9.74e-08 -1.077e-06)
(-2.304e-06 -9.846e-08 -1.077e-06)
(-2.237e-06 -9.946e-08 -1.076e-06)
(-2.169e-06 -1.004e-07 -1.076e-06)
(-2.101e-06 -1.012e-07 -1.076e-06)
(-2.032e-06 -1.02e-07 -1.077e-06)
(-1.963e-06 -1.026e-07 -1.077e-06)
(-1.894e-06 -1.032e-07 -1.078e-06)
(-1.824e-06 -1.036e-07 -1.079e-06)
(-1.755e-06 -1.04e-07 -1.079e-06)
(-1.685e-06 -1.042e-07 -1.08e-06)
(-1.616e-06 -1.044e-07 -1.081e-06)
(-1.547e-06 -1.045e-07 -1.082e-06)
(-1.479e-06 -1.045e-07 -1.083e-06)
(-1.411e-06 -1.045e-07 -1.084e-06)
(-1.344e-06 -1.045e-07 -1.085e-06)
(-1.277e-06 -1.044e-07 -1.086e-06)
(-1.211e-06 -1.043e-07 -1.087e-06)
(-1.146e-06 -1.042e-07 -1.087e-06)
(-1.08e-06 -1.041e-07 -1.088e-06)
(-1.016e-06 -1.039e-07 -1.088e-06)
(-9.519e-07 -1.038e-07 -1.089e-06)
(-8.883e-07 -1.036e-07 -1.089e-06)
(-8.252e-07 -1.035e-07 -1.09e-06)
(-7.625e-07 -1.033e-07 -1.09e-06)
(-7.001e-07 -1.032e-07 -1.09e-06)
(-6.381e-07 -1.031e-07 -1.09e-06)
(-5.765e-07 -1.029e-07 -1.091e-06)
(-5.151e-07 -1.028e-07 -1.091e-06)
(-2.557e-06 -2.829e-07 -1.081e-06)
(-2.495e-06 -2.858e-07 -1.079e-06)
(-2.432e-06 -2.89e-07 -1.078e-06)
(-2.367e-06 -2.922e-07 -1.077e-06)
(-2.302e-06 -2.954e-07 -1.076e-06)
(-2.235e-06 -2.984e-07 -1.075e-06)
(-2.168e-06 -3.012e-07 -1.075e-06)
(-2.099e-06 -3.037e-07 -1.075e-06)
(-2.031e-06 -3.06e-07 -1.076e-06)
(-1.961e-06 -3.079e-07 -1.076e-06)
(-1.892e-06 -3.095e-07 -1.077e-06)
(-1.822e-06 -3.108e-07 -1.078e-06)
(-1.753e-06 -3.118e-07 -1.079e-06)
(-1.683e-06 -3.126e-07 -1.08e-06)
(-1.614e-06 -3.131e-07 -1.081e-06)
(-1.546e-06 -3.134e-07 -1.081e-06)
(-1.478e-06 -3.135e-07 -1.082e-06)
(-1.41e-06 -3.135e-07 -1.083e-06)
(-1.343e-06 -3.134e-07 -1.084e-06)
(-1.276e-06 -3.132e-07 -1.085e-06)
(-1.21e-06 -3.129e-07 -1.086e-06)
(-1.144e-06 -3.125e-07 -1.086e-06)
(-1.079e-06 -3.121e-07 -1.087e-06)
(-1.015e-06 -3.117e-07 -1.088e-06)
(-9.51e-07 -3.112e-07 -1.088e-06)
(-8.875e-07 -3.108e-07 -1.089e-06)
(-8.245e-07 -3.103e-07 -1.089e-06)
(-7.618e-07 -3.099e-07 -1.089e-06)
(-6.996e-07 -3.095e-07 -1.089e-06)
(-6.376e-07 -3.091e-07 -1.09e-06)
(-5.76e-07 -3.088e-07 -1.09e-06)
(-5.147e-07 -3.084e-07 -1.09e-06)
(-2.554e-06 -4.712e-07 -1.079e-06)
(-2.492e-06 -4.762e-07 -1.077e-06)
(-2.428e-06 -4.816e-07 -1.076e-06)
(-2.364e-06 -4.87e-07 -1.075e-06)
(-2.298e-06 -4.923e-07 -1.074e-06)
(-2.231e-06 -4.974e-07 -1.074e-06)
(-2.164e-06 -5.02e-07 -1.074e-06)
(-2.095e-06 -5.063e-07 -1.074e-06)
(-2.027e-06 -5.1e-07 -1.074e-06)
(-1.957e-06 -5.132e-07 -1.075e-06)
(-1.888e-06 -5.158e-07 -1.075e-06)
(-1.818e-06 -5.18e-07 -1.076e-06)
(-1.749e-06 -5.197e-07 -1.077e-06)
(-1.68e-06 -5.209e-07 -1.078e-06)
(-1.611e-06 -5.217e-07 -1.079e-06)
(-1.542e-06 -5.222e-07 -1.08e-06)
(-1.474e-06 -5.224e-07 -1.081e-06)
(-1.407e-06 -5.224e-07 -1.081e-06)
(-1.34e-06 -5.221e-07 -1.082e-06)
(-1.273e-06 -5.217e-07 -1.083e-06)
(-1.207e-06 -5.212e-07 -1.084e-06)
(-1.142e-06 -5.206e-07 -1.085e-06)
(-1.077e-06 -5.199e-07 -1.085e-06)
(-1.013e-06 -5.192e-07 -1.086e-06)
(-9.492e-07 -5.185e-07 -1.086e-06)
(-8.858e-07 -5.178e-07 -1.087e-06)
(-8.229e-07 -5.171e-07 -1.087e-06)
(-7.604e-07 -5.163e-07 -1.087e-06)
(-6.983e-07 -5.157e-07 -1.088e-06)
(-6.365e-07 -5.15e-07 -1.088e-06)
(-5.75e-07 -5.144e-07 -1.088e-06)
(-5.138e-07 -5.139e-07 -1.088e-06)
(-2.548e-06 -6.592e-07 -1.076e-06)
(-2.486e-06 -6.664e-07 -1.074e-06)
(-2.422e-06 -6.74e-07 -1.073e-06)
(-2.358e-06 -6.817e-07 -1.072e-06)
(-2.292e-06 -6.892e-07 -1.071e-06)
(-2.225e-06 -6.963e-07 -1.071e-06)
(-2.158e-06 -7.029e-07 -1.071e-06)
(-2.089e-06 -7.088e-07 -1.071e-06)
(-2.02e-06 -7.14e-07 -1.071e-06)
(-1.951e-06 -7.185e-07 -1.072e-06)
(-1.882e-06 -7.221e-07 -1.073e-06)
(-1.812e-06 -7.251e-07 -1.073e-06)
(-1.743e-06 -7.273e-07 -1.074e-06)
(-1.674e-06 -7.29e-07 -1.075e-06)
(-1.605e-06 -7.301e-07 -1.076e-06)
(-1.537e-06 -7.308e-07 -1.077e-06)
(-1.469e-06 -7.31e-07 -1.078e-06)
(-1.402e-06 -7.309e-07 -1.079e-06)
(-1.335e-06 -7.306e-07 -1.08e-06)
(-1.269e-06 -7.3e-07 -1.08e-06)
(-1.204e-06 -7.293e-07 -1.081e-06)
(-1.138e-06 -7.284e-07 -1.082e-06)
(-1.074e-06 -7.275e-07 -1.082e-06)
(-1.01e-06 -7.265e-07 -1.083e-06)
(-9.464e-07 -7.255e-07 -1.083e-06)
(-8.833e-07 -7.245e-07 -1.084e-06)
(-8.206e-07 -7.235e-07 -1.084e-06)
(-7.584e-07 -7.225e-07 -1.084e-06)
(-6.965e-07 -7.216e-07 -1.085e-06)
(-6.349e-07 -7.207e-07 -1.085e-06)
(-5.736e-07 -7.199e-07 -1.085e-06)
(-5.125e-07 -7.191e-07 -1.085e-06)
(-2.561e-06 -9.422e-08 -1.019e-06)
(-2.499e-06 -9.513e-08 -1.017e-06)
(-2.436e-06 -9.619e-08 -1.016e-06)
(-2.371e-06 -9.727e-08 -1.015e-06)
(-2.306e-06 -9.833e-08 -1.014e-06)
(-2.239e-06 -9.934e-08 -1.013e-06)
(-2.172e-06 -1.003e-07 -1.013e-06)
(-2.103e-06 -1.011e-07 -1.013e-06)
(-2.034e-06 -1.019e-07 -1.014e-06)
(-1.965e-06 -1.025e-07 -1.014e-06)
(-1.895e-06 -1.031e-07 -1.015e-06)
(-1.826e-06 -1.035e-07 -1.015e-06)
(-1.756e-06 -1.038e-07 -1.016e-06)
(-1.687e-06 -1.041e-07 -1.017e-06)
(-1.617e-06 -1.043e-07 -1.018e-06)
(-1.549e-06 -1.044e-07 -1.019e-06)
(-1.48e-06 -1.044e-07 -1.02e-06)
(-1.412e-06 -1.044e-07 -1.02e-06)
(-1.345e-06 -1.044e-07 -1.021e-06)
(-1.278e-06 -1.043e-07 -1.022e-06)
(-1.212e-06 -1.042e-07 -1.023e-06)
(-1.146e-06 -1.041e-07 -1.023e-06)
(-1.081e-06 -1.039e-07 -1.024e-06)
(-1.016e-06 -1.038e-07 -1.024e-06)
(-9.521e-07 -1.036e-07 -1.025e-06)
(-8.885e-07 -1.035e-07 -1.025e-06)
(-8.253e-07 -1.033e-07 -1.026e-06)
(-7.625e-07 -1.032e-07 -1.026e-06)
(-7.001e-07 -1.03e-07 -1.026e-06)
(-6.381e-07 -1.029e-07 -1.026e-06)
(-5.764e-07 -1.028e-07 -1.026e-06)
(-5.15e-07 -1.027e-07 -1.027e-06)
(-2.56e-06 -2.824e-07 -1.018e-06)
(-2.498e-06 -2.854e-07 -1.016e-06)
(-2.434e-06 -2.885e-07 -1.015e-06)
(-2.37e-06 -2.918e-07 -1.014e-06)
(-2.304e-06 -2.95e-07 -1.013e-06)
(-2.237e-06 -2.98e-07 -1.013e-06)
(-2.17e-06 -3.009e-07 -1.013e-06)
(-2.101e-06 -3.034e-07 -1.013e-06)
(-2.032e-06 -3.056e-07 -1.013e-06)
(-1.963e-06 -3.076e-07 -1.013e-06)
(-1.894e-06 -3.092e-07 -1.014e-06)
(-1.824e-06 -3.105e-07 -1.015e-06)
(-1.754e-06 -3.115e-07 -1.015e-06)
(-1.685e-06 -3.122e-07 -1.016e-06)
(-1.616e-06 -3.127e-07 -1.017e-06)
(-1.547e-06 -3.13e-07 -1.018e-06)
(-1.479e-06 -3.132e-07 -1.019e-06)
(-1.411e-06 -3.131e-07 -1.02e-06)
(-1.343e-06 -3.13e-07 -1.02e-06)
(-1.277e-06 -3.128e-07 -1.021e-06)
(-1.211e-06 -3.125e-07 -1.022e-06)
(-1.145e-06 -3.121e-07 -1.022e-06)
(-1.08e-06 -3.117e-07 -1.023e-06)
(-1.015e-06 -3.112e-07 -1.024e-06)
(-9.512e-07 -3.108e-07 -1.024e-06)
(-8.877e-07 -3.103e-07 -1.024e-06)
(-8.246e-07 -3.099e-07 -1.025e-06)
(-7.619e-07 -3.095e-07 -1.025e-06)
(-6.996e-07 -3.09e-07 -1.025e-06)
(-6.376e-07 -3.087e-07 -1.025e-06)
(-5.76e-07 -3.083e-07 -1.026e-06)
(-5.146e-07 -3.08e-07 -1.026e-06)
(-2.556e-06 -4.703e-07 -1.016e-06)
(-2.494e-06 -4.755e-07 -1.014e-06)
(-2.43e-06 -4.808e-07 -1.013e-06)
(-2.366e-06 -4.863e-07 -1.012e-06)
(-2.3e-06 -4.917e-07 -1.011e-06)
(-2.233e-06 -4.967e-07 -1.011e-06)
(-2.166e-06 -5.015e-07 -1.011e-06)
(-2.097e-06 -5.057e-07 -1.011e-06)
(-2.028e-06 -5.094e-07 -1.011e-06)
(-1.959e-06 -5.126e-07 -1.012e-06)
(-1.889e-06 -5.153e-07 -1.012e-06)
(-1.82e-06 -5.174e-07 -1.013e-06)
(-1.75e-06 -5.191e-07 -1.014e-06)
(-1.681e-06 -5.203e-07 -1.015e-06)
(-1.612e-06 -5.211e-07 -1.015e-06)
(-1.543e-06 -5.216e-07 -1.016e-06)
(-1.475e-06 -5.218e-07 -1.017e-06)
(-1.408e-06 -5.217e-07 -1.018e-06)
(-1.341e-06 -5.215e-07 -1.019e-06)
(-1.274e-06 -5.211e-07 -1.019e-06)
(-1.208e-06 -5.206e-07 -1.02e-06)
(-1.143e-06 -5.199e-07 -1.021e-06)
(-1.078e-06 -5.192e-07 -1.021e-06)
(-1.013e-06 -5.185e-07 -1.022e-06)
(-9.494e-07 -5.178e-07 -1.022e-06)
(-8.86e-07 -5.17e-07 -1.023e-06)
(-8.23e-07 -5.163e-07 -1.023e-06)
(-7.605e-07 -5.156e-07 -1.023e-06)
(-6.983e-07 -5.149e-07 -1.024e-06)
(-6.365e-07 -5.142e-07 -1.024e-06)
(-5.75e-07 -5.136e-07 -1.024e-06)
(-5.137e-07 -5.131e-07 -1.024e-06)
(-2.55e-06 -6.58e-07 -1.014e-06)
(-2.488e-06 -6.653e-07 -1.012e-06)
(-2.425e-06 -6.73e-07 -1.011e-06)
(-2.36e-06 -6.808e-07 -1.01e-06)
(-2.294e-06 -6.883e-07 -1.009e-06)
(-2.227e-06 -6.955e-07 -1.009e-06)
(-2.16e-06 -7.021e-07 -1.009e-06)
(-2.091e-06 -7.081e-07 -1.009e-06)
(-2.022e-06 -7.133e-07 -1.009e-06)
(-1.953e-06 -7.177e-07 -1.009e-06)
(-1.883e-06 -7.214e-07 -1.01e-06)
(-1.814e-06 -7.243e-07 -1.011e-06)
(-1.744e-06 -7.266e-07 -1.011e-06)
(-1.675e-06 -7.282e-07 -1.012e-06)
(-1.606e-06 -7.293e-07 -1.013e-06)
(-1.538e-06 -7.299e-07 -1.014e-06)
(-1.47e-06 -7.302e-07 -1.015e-06)
(-1.403e-06 -7.301e-07 -1.015e-06)
(-1.336e-06 -7.297e-07 -1.016e-06)
(-1.27e-06 -7.291e-07 -1.017e-06)
(-1.204e-06 -7.284e-07 -1.018e-06)
(-1.139e-06 -7.275e-07 -1.018e-06)
(-1.074e-06 -7.265e-07 -1.019e-06)
(-1.01e-06 -7.255e-07 -1.019e-06)
(-9.466e-07 -7.245e-07 -1.02e-06)
(-8.835e-07 -7.234e-07 -1.02e-06)
(-8.208e-07 -7.224e-07 -1.02e-06)
(-7.584e-07 -7.214e-07 -1.021e-06)
(-6.965e-07 -7.205e-07 -1.021e-06)
(-6.348e-07 -7.196e-07 -1.021e-06)
(-5.735e-07 -7.187e-07 -1.021e-06)
(-5.125e-07 -7.18e-07 -1.021e-06)
(-2.564e-06 -9.405e-08 -9.56e-07)
(-2.501e-06 -9.497e-08 -9.544e-07)
(-2.438e-06 -9.604e-08 -9.531e-07)
(-2.373e-06 -9.713e-08 -9.521e-07)
(-2.308e-06 -9.82e-08 -9.515e-07)
(-2.241e-06 -9.921e-08 -9.511e-07)
(-2.173e-06 -1.002e-07 -9.51e-07)
(-2.105e-06 -1.01e-07 -9.51e-07)
(-2.036e-06 -1.018e-07 -9.513e-07)
(-1.967e-06 -1.024e-07 -9.517e-07)
(-1.897e-06 -1.029e-07 -9.522e-07)
(-1.827e-06 -1.034e-07 -9.528e-07)
(-1.757e-06 -1.037e-07 -9.534e-07)
(-1.688e-06 -1.04e-07 -9.541e-07)
(-1.619e-06 -1.041e-07 -9.549e-07)
(-1.55e-06 -1.042e-07 -9.556e-07)
(-1.481e-06 -1.043e-07 -9.564e-07)
(-1.413e-06 -1.043e-07 -9.571e-07)
(-1.346e-06 -1.042e-07 -9.578e-07)
(-1.279e-06 -1.041e-07 -9.585e-07)
(-1.212e-06 -1.04e-07 -9.592e-07)
(-1.146e-06 -1.039e-07 -9.597e-07)
(-1.081e-06 -1.038e-07 -9.603e-07)
(-1.017e-06 -1.036e-07 -9.608e-07)
(-9.523e-07 -1.035e-07 -9.612e-07)
(-8.886e-07 -1.033e-07 -9.616e-07)
(-8.254e-07 -1.032e-07 -9.619e-07)
(-7.626e-07 -1.03e-07 -9.622e-07)
(-7.002e-07 -1.029e-07 -9.624e-07)
(-6.381e-07 -1.027e-07 -9.626e-07)
(-5.764e-07 -1.026e-07 -9.627e-07)
(-5.149e-07 -1.025e-07 -9.628e-07)
(-2.562e-06 -2.819e-07 -9.553e-07)
(-2.5e-06 -2.849e-07 -9.536e-07)
(-2.436e-06 -2.881e-07 -9.523e-07)
(-2.372e-06 -2.914e-07 -9.514e-07)
(-2.306e-06 -2.946e-07 -9.508e-07)
(-2.239e-06 -2.977e-07 -9.504e-07)
(-2.172e-06 -3.005e-07 -9.503e-07)
(-2.103e-06 -3.03e-07 -9.504e-07)
(-2.034e-06 -3.053e-07 -9.506e-07)
(-1.965e-06 -3.072e-07 -9.51e-07)
(-1.895e-06 -3.088e-07 -9.515e-07)
(-1.825e-06 -3.101e-07 -9.521e-07)
(-1.756e-06 -3.111e-07 -9.528e-07)
(-1.686e-06 -3.119e-07 -9.535e-07)
(-1.617e-06 -3.124e-07 -9.542e-07)
(-1.548e-06 -3.127e-07 -9.549e-07)
(-1.48e-06 -3.128e-07 -9.557e-07)
(-1.412e-06 -3.128e-07 -9.564e-07)
(-1.344e-06 -3.126e-07 -9.571e-07)
(-1.277e-06 -3.124e-07 -9.578e-07)
(-1.211e-06 -3.12e-07 -9.584e-07)
(-1.145e-06 -3.117e-07 -9.59e-07)
(-1.08e-06 -3.112e-07 -9.596e-07)
(-1.016e-06 -3.108e-07 -9.6e-07)
(-9.515e-07 -3.103e-07 -9.605e-07)
(-8.879e-07 -3.099e-07 -9.608e-07)
(-8.247e-07 -3.094e-07 -9.612e-07)
(-7.619e-07 -3.09e-07 -9.614e-07)
(-6.996e-07 -3.086e-07 -9.617e-07)
(-6.376e-07 -3.082e-07 -9.618e-07)
(-5.759e-07 -3.078e-07 -9.62e-07)
(-5.145e-07 -3.075e-07 -9.621e-07)
(-2.558e-06 -4.695e-07 -9.536e-07)
(-2.496e-06 -4.747e-07 -9.52e-07)
(-2.432e-06 -4.801e-07 -9.508e-07)
(-2.368e-06 -4.856e-07 -9.499e-07)
(-2.302e-06 -4.91e-07 -9.493e-07)
(-2.235e-06 -4.961e-07 -9.489e-07)
(-2.168e-06 -5.008e-07 -9.488e-07)
(-2.099e-06 -5.051e-07 -9.489e-07)
(-2.03e-06 -5.089e-07 -9.491e-07)
(-1.961e-06 -5.121e-07 -9.495e-07)
(-1.891e-06 -5.147e-07 -9.5e-07)
(-1.821e-06 -5.168e-07 -9.506e-07)
(-1.752e-06 -5.185e-07 -9.513e-07)
(-1.682e-06 -5.197e-07 -9.52e-07)
(-1.613e-06 -5.205e-07 -9.527e-07)
(-1.544e-06 -5.21e-07 -9.534e-07)
(-1.476e-06 -5.212e-07 -9.542e-07)
(-1.408e-06 -5.211e-07 -9.549e-07)
(-1.341e-06 -5.208e-07 -9.556e-07)
(-1.275e-06 -5.204e-07 -9.563e-07)
(-1.209e-06 -5.199e-07 -9.569e-07)
(-1.143e-06 -5.192e-07 -9.575e-07)
(-1.078e-06 -5.185e-07 -9.58e-07)
(-1.014e-06 -5.178e-07 -9.585e-07)
(-9.496e-07 -5.17e-07 -9.589e-07)
(-8.862e-07 -5.163e-07 -9.593e-07)
(-8.232e-07 -5.155e-07 -9.596e-07)
(-7.606e-07 -5.148e-07 -9.599e-07)
(-6.984e-07 -5.141e-07 -9.601e-07)
(-6.365e-07 -5.134e-07 -9.603e-07)
(-5.75e-07 -5.128e-07 -9.604e-07)
(-5.137e-07 -5.123e-07 -9.605e-07)
(-2.552e-06 -6.568e-07 -9.512e-07)
(-2.49e-06 -6.642e-07 -9.496e-07)
(-2.427e-06 -6.72e-07 -9.485e-07)
(-2.362e-06 -6.798e-07 -9.476e-07)
(-2.296e-06 -6.874e-07 -9.47e-07)
(-2.229e-06 -6.946e-07 -9.467e-07)
(-2.161e-06 -7.013e-07 -9.466e-07)
(-2.093e-06 -7.072e-07 -9.467e-07)
(-2.024e-06 -7.124e-07 -9.47e-07)
(-1.954e-06 -7.169e-07 -9.473e-07)
(-1.885e-06 -7.205e-07 -9.478e-07)
(-1.815e-06 -7.235e-07 -9.484e-07)
(-1.746e-06 -7.257e-07 -9.491e-07)
(-1.676e-06 -7.274e-07 -9.498e-07)
(-1.608e-06 -7.285e-07 -9.505e-07)
(-1.539e-06 -7.291e-07 -9.512e-07)
(-1.471e-06 -7.293e-07 -9.519e-07)
(-1.404e-06 -7.292e-07 -9.526e-07)
(-1.337e-06 -7.288e-07 -9.533e-07)
(-1.27e-06 -7.282e-07 -9.54e-07)
(-1.205e-06 -7.274e-07 -9.546e-07)
(-1.139e-06 -7.265e-07 -9.551e-07)
(-1.075e-06 -7.255e-07 -9.557e-07)
(-1.011e-06 -7.245e-07 -9.561e-07)
(-9.469e-07 -7.234e-07 -9.565e-07)
(-8.836e-07 -7.224e-07 -9.569e-07)
(-8.209e-07 -7.213e-07 -9.572e-07)
(-7.585e-07 -7.203e-07 -9.575e-07)
(-6.965e-07 -7.193e-07 -9.577e-07)
(-6.349e-07 -7.184e-07 -9.579e-07)
(-5.735e-07 -7.176e-07 -9.581e-07)
(-5.124e-07 -7.168e-07 -9.582e-07)
(-2.565e-06 -9.388e-08 -8.936e-07)
(-2.503e-06 -9.481e-08 -8.921e-07)
(-2.44e-06 -9.589e-08 -8.909e-07)
(-2.375e-06 -9.699e-08 -8.9e-07)
(-2.31e-06 -9.806e-08 -8.894e-07)
(-2.243e-06 -9.908e-08 -8.891e-07)
(-2.175e-06 -1e-07 -8.89e-07)
(-2.107e-06 -1.009e-07 -8.89e-07)
(-2.038e-06 -1.016e-07 -8.892e-07)
(-1.968e-06 -1.023e-07 -8.895e-07)
(-1.898e-06 -1.028e-07 -8.9e-07)
(-1.828e-06 -1.033e-07 -8.905e-07)
(-1.759e-06 -1.036e-07 -8.911e-07)
(-1.689e-06 -1.038e-07 -8.917e-07)
(-1.62e-06 -1.04e-07 -8.923e-07)
(-1.551e-06 -1.041e-07 -8.93e-07)
(-1.482e-06 -1.042e-07 -8.937e-07)
(-1.414e-06 -1.041e-07 -8.943e-07)
(-1.346e-06 -1.041e-07 -8.95e-07)
(-1.279e-06 -1.04e-07 -8.956e-07)
(-1.213e-06 -1.039e-07 -8.962e-07)
(-1.147e-06 -1.038e-07 -8.967e-07)
(-1.082e-06 -1.036e-07 -8.972e-07)
(-1.017e-06 -1.035e-07 -8.976e-07)
(-9.526e-07 -1.033e-07 -8.98e-07)
(-8.888e-07 -1.032e-07 -8.984e-07)
(-8.255e-07 -1.03e-07 -8.987e-07)
(-7.627e-07 -1.029e-07 -8.989e-07)
(-7.002e-07 -1.027e-07 -8.992e-07)
(-6.381e-07 -1.026e-07 -8.993e-07)
(-5.764e-07 -1.025e-07 -8.995e-07)
(-5.149e-07 -1.023e-07 -8.996e-07)
(-2.564e-06 -2.814e-07 -8.929e-07)
(-2.501e-06 -2.844e-07 -8.914e-07)
(-2.438e-06 -2.877e-07 -8.903e-07)
(-2.373e-06 -2.91e-07 -8.894e-07)
(-2.308e-06 -2.942e-07 -8.888e-07)
(-2.241e-06 -2.973e-07 -8.885e-07)
(-2.173e-06 -3.001e-07 -8.883e-07)
(-2.105e-06 -3.027e-07 -8.884e-07)
(-2.036e-06 -3.049e-07 -8.886e-07)
(-1.966e-06 -3.069e-07 -8.889e-07)
(-1.896e-06 -3.085e-07 -8.893e-07)
(-1.827e-06 -3.098e-07 -8.899e-07)
(-1.757e-06 -3.108e-07 -8.904e-07)
(-1.687e-06 -3.115e-07 -8.911e-07)
(-1.618e-06 -3.12e-07 -8.917e-07)
(-1.549e-06 -3.123e-07 -8.924e-07)
(-1.48e-06 -3.124e-07 -8.931e-07)
(-1.412e-06 -3.124e-07 -8.937e-07)
(-1.345e-06 -3.122e-07 -8.943e-07)
(-1.278e-06 -3.12e-07 -8.95e-07)
(-1.212e-06 -3.116e-07 -8.955e-07)
(-1.146e-06 -3.112e-07 -8.961e-07)
(-1.081e-06 -3.108e-07 -8.965e-07)
(-1.016e-06 -3.104e-07 -8.97e-07)
(-9.517e-07 -3.099e-07 -8.974e-07)
(-8.88e-07 -3.094e-07 -8.977e-07)
(-8.248e-07 -3.09e-07 -8.98e-07)
(-7.62e-07 -3.085e-07 -8.983e-07)
(-6.996e-07 -3.081e-07 -8.985e-07)
(-6.376e-07 -3.077e-07 -8.987e-07)
(-5.759e-07 -3.073e-07 -8.988e-07)
(-5.145e-07 -3.07e-07 -8.99e-07)
(-2.56e-06 -4.686e-07 -8.914e-07)
(-2.498e-06 -4.739e-07 -8.9e-07)
(-2.434e-06 -4.794e-07 -8.888e-07)
(-2.37e-06 -4.849e-07 -8.88e-07)
(-2.304e-06 -4.903e-07 -8.875e-07)
(-2.237e-06 -4.955e-07 -8.871e-07)
(-2.169e-06 -5.002e-07 -8.87e-07)
(-2.101e-06 -5.045e-07 -8.871e-07)
(-2.032e-06 -5.083e-07 -8.873e-07)
(-1.962e-06 -5.115e-07 -8.876e-07)
(-1.892e-06 -5.141e-07 -8.88e-07)
(-1.823e-06 -5.162e-07 -8.885e-07)
(-1.753e-06 -5.179e-07 -8.891e-07)
(-1.683e-06 -5.191e-07 -8.897e-07)
(-1.614e-06 -5.199e-07 -8.904e-07)
(-1.545e-06 -5.204e-07 -8.91e-07)
(-1.477e-06 -5.205e-07 -8.917e-07)
(-1.409e-06 -5.204e-07 -8.923e-07)
(-1.342e-06 -5.202e-07 -8.93e-07)
(-1.275e-06 -5.197e-07 -8.936e-07)
(-1.209e-06 -5.192e-07 -8.941e-07)
(-1.143e-06 -5.185e-07 -8.946e-07)
(-1.078e-06 -5.178e-07 -8.951e-07)
(-1.014e-06 -5.171e-07 -8.956e-07)
(-9.499e-07 -5.163e-07 -8.96e-07)
(-8.864e-07 -5.155e-07 -8.963e-07)
(-8.233e-07 -5.148e-07 -8.966e-07)
(-7.607e-07 -5.14e-07 -8.969e-07)
(-6.984e-07 -5.133e-07 -8.971e-07)
(-6.365e-07 -5.126e-07 -8.973e-07)
(-5.75e-07 -5.12e-07 -8.974e-07)
(-5.137e-07 -5.115e-07 -8.975e-07)
(-2.554e-06 -6.556e-07 -8.892e-07)
(-2.492e-06 -6.631e-07 -8.878e-07)
(-2.428e-06 -6.71e-07 -8.867e-07)
(-2.364e-06 -6.788e-07 -8.86e-07)
(-2.298e-06 -6.865e-07 -8.854e-07)
(-2.231e-06 -6.937e-07 -8.851e-07)
(-2.163e-06 -7.004e-07 -8.85e-07)
(-2.094e-06 -7.064e-07 -8.851e-07)
(-2.025e-06 -7.116e-07 -8.853e-07)
(-1.956e-06 -7.16e-07 -8.856e-07)
(-1.886e-06 -7.197e-07 -8.86e-07)
(-1.816e-06 -7.226e-07 -8.865e-07)
(-1.747e-06 -7.249e-07 -8.871e-07)
(-1.677e-06 -7.265e-07 -8.877e-07)
(-1.608e-06 -7.276e-07 -8.883e-07)
(-1.54e-06 -7.282e-07 -8.89e-07)
(-1.472e-06 -7.284e-07 -8.896e-07)
(-1.404e-06 -7.283e-07 -8.903e-07)
(-1.337e-06 -7.278e-07 -8.909e-07)
(-1.271e-06 -7.272e-07 -8.915e-07)
(-1.205e-06 -7.264e-07 -8.92e-07)
(-1.14e-06 -7.255e-07 -8.925e-07)
(-1.075e-06 -7.245e-07 -8.93e-07)
(-1.011e-06 -7.235e-07 -8.934e-07)
(-9.471e-07 -7.224e-07 -8.938e-07)
(-8.838e-07 -7.213e-07 -8.942e-07)
(-8.21e-07 -7.203e-07 -8.945e-07)
(-7.586e-07 -7.192e-07 -8.947e-07)
(-6.966e-07 -7.183e-07 -8.95e-07)
(-6.349e-07 -7.173e-07 -8.951e-07)
(-5.735e-07 -7.165e-07 -8.953e-07)
(-5.124e-07 -7.157e-07 -8.954e-07)
(-2.567e-06 -9.372e-08 -8.315e-07)
(-2.505e-06 -9.466e-08 -8.301e-07)
(-2.441e-06 -9.574e-08 -8.291e-07)
(-2.377e-06 -9.685e-08 -8.283e-07)
(-2.311e-06 -9.793e-08 -8.278e-07)
(-2.244e-06 -9.896e-08 -8.274e-07)
(-2.177e-06 -9.991e-08 -8.273e-07)
(-2.108e-06 -1.008e-07 -8.273e-07)
(-2.039e-06 -1.015e-07 -8.275e-07)
(-1.969e-06 -1.022e-07 -8.278e-07)
(-1.9e-06 -1.027e-07 -8.281e-07)
(-1.83e-06 -1.031e-07 -8.286e-07)
(-1.76e-06 -1.035e-07 -8.291e-07)
(-1.69e-06 -1.037e-07 -8.296e-07)
(-1.621e-06 -1.039e-07 -8.302e-07)
(-1.551e-06 -1.04e-07 -8.308e-07)
(-1.483e-06 -1.04e-07 -8.314e-07)
(-1.415e-06 -1.04e-07 -8.32e-07)
(-1.347e-06 -1.04e-07 -8.326e-07)
(-1.28e-06 -1.039e-07 -8.331e-07)
(-1.213e-06 -1.038e-07 -8.336e-07)
(-1.147e-06 -1.036e-07 -8.341e-07)
(-1.082e-06 -1.035e-07 -8.346e-07)
(-1.017e-06 -1.033e-07 -8.35e-07)
(-9.528e-07 -1.032e-07 -8.353e-07)
(-8.89e-07 -1.03e-07 -8.357e-07)
(-8.257e-07 -1.029e-07 -8.359e-07)
(-7.628e-07 -1.027e-07 -8.362e-07)
(-7.003e-07 -1.026e-07 -8.364e-07)
(-6.382e-07 -1.024e-07 -8.366e-07)
(-5.764e-07 -1.023e-07 -8.367e-07)
(-5.149e-07 -1.022e-07 -8.368e-07)
(-2.565e-06 -2.809e-07 -8.309e-07)
(-2.503e-06 -2.839e-07 -8.295e-07)
(-2.44e-06 -2.872e-07 -8.285e-07)
(-2.375e-06 -2.905e-07 -8.277e-07)
(-2.309e-06 -2.938e-07 -8.272e-07)
(-2.242e-06 -2.969e-07 -8.269e-07)
(-2.175e-06 -2.997e-07 -8.267e-07)
(-2.106e-06 -3.023e-07 -8.268e-07)
(-2.037e-06 -3.046e-07 -8.269e-07)
(-1.968e-06 -3.065e-07 -8.272e-07)
(-1.898e-06 -3.081e-07 -8.276e-07)
(-1.828e-06 -3.094e-07 -8.28e-07)
(-1.758e-06 -3.104e-07 -8.285e-07)
(-1.688e-06 -3.111e-07 -8.291e-07)
(-1.619e-06 -3.116e-07 -8.297e-07)
(-1.55e-06 -3.119e-07 -8.303e-07)
(-1.481e-06 -3.12e-07 -8.308e-07)
(-1.413e-06 -3.12e-07 -8.314e-07)
(-1.346e-06 -3.118e-07 -8.32e-07)
(-1.279e-06 -3.116e-07 -8.325e-07)
(-1.212e-06 -3.112e-07 -8.331e-07)
(-1.146e-06 -3.108e-07 -8.335e-07)
(-1.081e-06 -3.104e-07 -8.34e-07)
(-1.016e-06 -3.099e-07 -8.344e-07)
(-9.52e-07 -3.095e-07 -8.347e-07)
(-8.882e-07 -3.09e-07 -8.351e-07)
(-8.25e-07 -3.085e-07 -8.354e-07)
(-7.621e-07 -3.081e-07 -8.356e-07)
(-6.997e-07 -3.076e-07 -8.358e-07)
(-6.377e-07 -3.072e-07 -8.36e-07)
(-5.759e-07 -3.069e-07 -8.361e-07)
(-5.145e-07 -3.065e-07 -8.362e-07)
(-2.561e-06 -4.678e-07 -8.295e-07)
(-2.499e-06 -4.731e-07 -8.282e-07)
(-2.436e-06 -4.786e-07 -8.272e-07)
(-2.371e-06 -4.842e-07 -8.265e-07)
(-2.305e-06 -4.897e-07 -8.26e-07)
(-2.238e-06 -4.948e-07 -8.257e-07)
(-2.171e-06 -4.996e-07 -8.255e-07)
(-2.102e-06 -5.039e-07 -8.256e-07)
(-2.033e-06 -5.077e-07 -8.257e-07)
(-1.963e-06 -5.109e-07 -8.26e-07)
(-1.894e-06 -5.135e-07 -8.264e-07)
(-1.824e-06 -5.157e-07 -8.268e-07)
(-1.754e-06 -5.173e-07 -8.273e-07)