/*--------------------------------*- C++ -*----------------------------------*\
  =========                 |
  \\      /  F ield         | OpenFOAM: The Open Source CFD Toolbox
   \\    /   O peration     | Website:  https://openfoam.org
    \\  /    A nd           | Version:  6
     \\/     M anipulation  |
\*---------------------------------------------------------------------------*/
FoamFile
{
    version     2.0;
    format      ascii;
    class       volScalarField;
    location    "15";
    object      T;
}
// * * * * * * * * * * * * * * * * * * * * * * * * * * * * * * * * * * * * * //

dimensions      [0 0 0 1 0 0 0];

internalField   nonuniform List<scalar> 
16128
(
6.001
5.996
5.987
5.975
5.96
5.942
5.921
5.896
5.869
5.839
5.805
5.769
5.73
5.688
5.643
5.596
5.546
5.493
5.439
5.382
5.324
5.264
5.202
5.14
5.077
5.013
4.95
4.887
4.826
4.766
4.709
4.655
6
5.995
5.986
5.974
5.959
5.941
5.92
5.895
5.868
5.838
5.805
5.769
5.73
5.688
5.643
5.596
5.546
5.494
5.44
5.383
5.325
5.265
5.204
5.142
5.079
5.016
4.953
4.89
4.829
4.77
4.713
4.659
5.998
5.992
5.984
5.972
5.957
5.939
5.918
5.894
5.867
5.837
5.804
5.768
5.729
5.688
5.643
5.597
5.547
5.496
5.442
5.386
5.328
5.269
5.208
5.146
5.084
5.021
4.959
4.897
4.837
4.778
4.721
4.668
5.994
5.989
5.98
5.969
5.954
5.936
5.915
5.891
5.865
5.835
5.802
5.767
5.728
5.687
5.644
5.597
5.549
5.497
5.444
5.389
5.332
5.273
5.213
5.152
5.091
5.029
4.968
4.907
4.847
4.789
4.734
4.681
5.918
5.912
5.903
5.891
5.876
5.857
5.835
5.81
5.782
5.751
5.717
5.68
5.64
5.597
5.551
5.503
5.453
5.4
5.345
5.288
5.229
5.169
5.108
5.045
4.983
4.92
4.858
4.796
4.736
4.678
4.623
4.57
5.917
5.911
5.902
5.89
5.875
5.856
5.834
5.81
5.782
5.751
5.716
5.679
5.64
5.597
5.552
5.504
5.453
5.401
5.346
5.289
5.231
5.171
5.11
5.048
4.985
4.923
4.861
4.8
4.74
4.682
4.627
4.575
5.915
5.909
5.9
5.888
5.873
5.855
5.833
5.808
5.78
5.75
5.716
5.679
5.64
5.597
5.552
5.505
5.455
5.402
5.348
5.292
5.234
5.174
5.114
5.052
4.991
4.929
4.867
4.807
4.747
4.69
4.635
4.584
5.912
5.906
5.898
5.885
5.87
5.852
5.831
5.806
5.779
5.748
5.715
5.679
5.639
5.597
5.553
5.506
5.457
5.405
5.351
5.295
5.238
5.179
5.12
5.059
4.998
4.937
4.876
4.817
4.758
4.702
4.648
4.597
5.836
5.83
5.821
5.809
5.793
5.773
5.751
5.725
5.697
5.665
5.63
5.592
5.551
5.507
5.461
5.412
5.361
5.307
5.252
5.194
5.135
5.075
5.014
4.952
4.89
4.828
4.766
4.706
4.647
4.59
4.536
4.485
5.835
5.83
5.82
5.808
5.792
5.773
5.75
5.725
5.696
5.664
5.63
5.592
5.551
5.508
5.461
5.413
5.362
5.308
5.253
5.196
5.137
5.077
5.016
4.954
4.893
4.831
4.77
4.71
4.651
4.594
4.541
4.49
5.833
5.828
5.819
5.806
5.79
5.771
5.749
5.724
5.695
5.664
5.629
5.592
5.551
5.508
5.462
5.414
5.363
5.31
5.255
5.199
5.14
5.081
5.02
4.959
4.898
4.837
4.776
4.717
4.659
4.603
4.549
4.499
5.831
5.825
5.816
5.804
5.788
5.769
5.747
5.722
5.694
5.663
5.629
5.591
5.552
5.509
5.463
5.416
5.366
5.313
5.259
5.203
5.145
5.087
5.027
4.967
4.906
4.846
4.786
4.727
4.67
4.615
4.562
4.512
5.756
5.75
5.74
5.727
5.711
5.691
5.668
5.642
5.613
5.58
5.544
5.505
5.463
5.419
5.372
5.322
5.27
5.216
5.16
5.102
5.043
4.982
4.921
4.859
4.798
4.736
4.675
4.616
4.558
4.503
4.45
4.4
5.755
5.749
5.74
5.727
5.711
5.691
5.668
5.642
5.612
5.58
5.544
5.505
5.464
5.419
5.372
5.323
5.271
5.217
5.161
5.103
5.044
4.984
4.923
4.862
4.8
4.739
4.679
4.62
4.562
4.507
4.454
4.405
5.753
5.748
5.738
5.725
5.709
5.69
5.667
5.641
5.612
5.579
5.544
5.505
5.464
5.42
5.373
5.324
5.273
5.219
5.164
5.107
5.048
4.988
4.928
4.867
4.806
4.745
4.685
4.627
4.57
4.515
4.463
4.414
5.751
5.745
5.736
5.723
5.707
5.688
5.666
5.64
5.611
5.579
5.544
5.506
5.465
5.421
5.375
5.327
5.276
5.223
5.168
5.111
5.054
4.995
4.935
4.875
4.815
4.755
4.695
4.637
4.581
4.527
4.476
4.428
5.677
5.671
5.661
5.648
5.631
5.611
5.587
5.56
5.53
5.496
5.46
5.42
5.377
5.332
5.284
5.233
5.18
5.125
5.069
5.01
4.951
4.89
4.829
4.767
4.706
4.645
4.585
4.526
4.469
4.414
4.363
4.314
5.676
5.67
5.661
5.647
5.631
5.61
5.587
5.56
5.53
5.496
5.46
5.42
5.378
5.332
5.284
5.234
5.181
5.127
5.07
5.012
4.953
4.892
4.831
4.77
4.709
4.648
4.588
4.53
4.473
4.419
4.367
4.319
5.675
5.669
5.659
5.646
5.63
5.61
5.586
5.559
5.529
5.496
5.46
5.421
5.378
5.333
5.286
5.236
5.184
5.129
5.073
5.016
4.957
4.897
4.836
4.775
4.715
4.654
4.595
4.537
4.481
4.427
4.376
4.328
5.673
5.667
5.657
5.644
5.628
5.608
5.585
5.559
5.529
5.496
5.46
5.421
5.379
5.335
5.288
5.239
5.187
5.133
5.078
5.021
4.963
4.903
4.844
4.784
4.724
4.664
4.605
4.548
4.493
4.44
4.389
4.342
5.6
5.593
5.584
5.57
5.553
5.532
5.508
5.48
5.449
5.414
5.376
5.336
5.292
5.246
5.197
5.145
5.092
5.036
4.978
4.92
4.86
4.799
4.737
4.676
4.614
4.554
4.494
4.436
4.38
4.326
4.275
4.228
5.599
5.593
5.583
5.569
5.552
5.532
5.507
5.48
5.449
5.414
5.377
5.336
5.293
5.246
5.198
5.146
5.093
5.037
4.98
4.922
4.862
4.801
4.74
4.679
4.617
4.557
4.498
4.44
4.384
4.33
4.28
4.233
5.598
5.592
5.582
5.568
5.551
5.531
5.507
5.479
5.448
5.414
5.377
5.337
5.294
5.248
5.199
5.148
5.095
5.04
4.984
4.925
4.866
4.806
4.745
4.684
4.624
4.564
4.505
4.447
4.392
4.339
4.289
4.242
5.596
5.59
5.58
5.567
5.55
5.53
5.506
5.479
5.448
5.415
5.378
5.338
5.295
5.25
5.202
5.152
5.099
5.045
4.989
4.931
4.872
4.813
4.753
4.693
4.633
4.574
4.515
4.459
4.404
4.352
4.302
4.256
5.524
5.518
5.507
5.493
5.476
5.454
5.429
5.401
5.369
5.333
5.295
5.253
5.208
5.161
5.111
5.058
5.004
4.947
4.889
4.83
4.769
4.708
4.646
4.584
4.523
4.463
4.403
4.346
4.29
4.237
4.187
4.141
5.523
5.517
5.507
5.493
5.475
5.454
5.429
5.401
5.369
5.333
5.295
5.253
5.209
5.162
5.112
5.06
5.005
4.949
4.891
4.832
4.771
4.71
4.649
4.587
4.526
4.466
4.407
4.35
4.294
4.242
4.192
4.145
5.522
5.516
5.506
5.492
5.475
5.454
5.429
5.401
5.369
5.334
5.296
5.254
5.21
5.163
5.114
5.062
5.008
4.952
4.895
4.836
4.776
4.715
4.654
4.593
4.533
4.473
4.415
4.358
4.303
4.25
4.201
4.155
5.521
5.515
5.505
5.491
5.474
5.453
5.428
5.4
5.369
5.334
5.297
5.256
5.212
5.166
5.117
5.066
5.012
4.957
4.9
4.842
4.783
4.723
4.663
4.602
4.543
4.483
4.426
4.369
4.315
4.264
4.215
4.169
5.449
5.443
5.433
5.418
5.4
5.378
5.352
5.323
5.29
5.254
5.214
5.171
5.126
5.077
5.026
4.972
4.917
4.86
4.801
4.74
4.679
4.617
4.555
4.493
4.432
4.372
4.313
4.255
4.2
4.148
4.099
4.053
5.449
5.443
5.432
5.418
5.4
5.378
5.352
5.323
5.29
5.254
5.215
5.172
5.126
5.078
5.027
4.974
4.918
4.861
4.803
4.743
4.682
4.62
4.558
4.497
4.436
4.375
4.317
4.259
4.205
4.152
4.103
4.058
5.448
5.442
5.432
5.417
5.399
5.378
5.352
5.323
5.291
5.255
5.215
5.173
5.128
5.08
5.029
4.976
4.922
4.865
4.806
4.747
4.686
4.625
4.564
4.503
4.442
4.383
4.324
4.268
4.213
4.162
4.113
4.067
5.447
5.441
5.431
5.416
5.399
5.377
5.352
5.323
5.291
5.255
5.217
5.175
5.13
5.083
5.033
4.98
4.926
4.87
4.812
4.753
4.694
4.633
4.573
4.512
4.452
4.393
4.336
4.28
4.226
4.175
4.127
4.082
5.377
5.37
5.36
5.345
5.326
5.303
5.277
5.247
5.213
5.175
5.135
5.091
5.044
4.994
4.942
4.887
4.831
4.772
4.713
4.652
4.59
4.527
4.465
4.403
4.341
4.281
4.222
4.165
4.11
4.058
4.009
3.964
5.376
5.37
5.359
5.345
5.326
5.303
5.277
5.247
5.213
5.176
5.135
5.092
5.045
4.995
4.943
4.889
4.833
4.774
4.715
4.654
4.592
4.53
4.468
4.406
4.345
4.285
4.226
4.169
4.115
4.063
4.014
3.969
5.376
5.369
5.359
5.344
5.326
5.303
5.277
5.247
5.214
5.177
5.136
5.093
5.047
4.997
4.946
4.892
4.836
4.778
4.719
4.659
4.597
4.536
4.474
4.413
4.352
4.292
4.234
4.177
4.123
4.072
4.024
3.979
5.375
5.368
5.358
5.343
5.325
5.303
5.277
5.247
5.214
5.178
5.138
5.095
5.049
5.001
4.949
4.896
4.841
4.784
4.725
4.666
4.605
4.544
4.483
4.422
4.362
4.303
4.246
4.19
4.137
4.086
4.038
3.994
5.305
5.299
5.288
5.273
5.253
5.23
5.203
5.172
5.137
5.098
5.056
5.011
4.963
4.912
4.859
4.803
4.745
4.686
4.625
4.563
4.501
4.438
4.375
4.312
4.25
4.19
4.131
4.074
4.019
3.968
3.919
3.874
5.305
5.299
5.288
5.273
5.253
5.23
5.203
5.172
5.137
5.099
5.057
5.012
4.964
4.914
4.86
4.805
4.747
4.688
4.627
4.566
4.503
4.441
4.378
4.315
4.254
4.194
4.135
4.078
4.024
3.973
3.924
3.88
5.305
5.298
5.287
5.272
5.253
5.23
5.203
5.172
5.138
5.1
5.058
5.014
4.966
4.916
4.863
4.808
4.751
4.692
4.632
4.571
4.509
4.446
4.384
4.322
4.261
4.201
4.143
4.087
4.033
3.982
3.934
3.89
5.304
5.297
5.287
5.272
5.253
5.23
5.203
5.173
5.139
5.101
5.06
5.016
4.969
4.919
4.867
4.813
4.756
4.698
4.639
4.578
4.517
4.455
4.394
4.333
4.272
4.213
4.156
4.1
4.047
3.996
3.949
3.905
5.236
5.229
5.218
5.202
5.182
5.158
5.13
5.098
5.062
5.022
4.979
4.933
4.884
4.831
4.777
4.72
4.661
4.6
4.538
4.475
4.412
4.348
4.284
4.221
4.159
4.099
4.039
3.983
3.928
3.877
3.829
3.784
5.235
5.229
5.217
5.202
5.182
5.158
5.13
5.098
5.062
5.023
4.98
4.934
4.885
4.833
4.778
4.721
4.663
4.602
4.541
4.478
4.415
4.351
4.288
4.225
4.163
4.103
4.044
3.987
3.933
3.882
3.834
3.789
5.235
5.228
5.217
5.202
5.182
5.158
5.13
5.099
5.063
5.024
4.982
4.936
4.887
4.835
4.781
4.725
4.667
4.607
4.545
4.483
4.42
4.357
4.295
4.232
4.171
4.111
4.052
3.996
3.942
3.892
3.844
3.8
5.234
5.228
5.217
5.201
5.182
5.158
5.131
5.1
5.064
5.026
4.984
4.938
4.89
4.839
4.786
4.73
4.672
4.613
4.552
4.491
4.429
4.367
4.305
4.243
4.182
4.123
4.065
4.01
3.956
3.906
3.859
3.816
5.167
5.16
5.149
5.133
5.112
5.087
5.058
5.025
4.988
4.947
4.903
4.856
4.805
4.751
4.695
4.637
4.577
4.515
4.452
4.388
4.323
4.259
4.194
4.131
4.068
4.007
3.948
3.891
3.836
3.785
3.737
3.693
5.167
5.16
5.149
5.133
5.112
5.088
5.059
5.026
4.989
4.948
4.904
4.857
4.806
4.753
4.697
4.639
4.579
4.517
4.454
4.391
4.326
4.262
4.198
4.134
4.072
4.011
3.952
3.896
3.841
3.79
3.742
3.698
5.167
5.16
5.148
5.133
5.112
5.088
5.059
5.026
4.99
4.949
4.906
4.859
4.808
4.755
4.7
4.642
4.583
4.522
4.459
4.396
4.332
4.268
4.205
4.142
4.08
4.02
3.961
3.905
3.851
3.8
3.753
3.709
5.166
5.159
5.148
5.132
5.112
5.088
5.06
5.027
4.991
4.951
4.908
4.861
4.812
4.76
4.705
4.648
4.589
4.528
4.467
4.404
4.341
4.278
4.215
4.153
4.092
4.032
3.974
3.919
3.866
3.815
3.769
3.725
5.1
5.093
5.081
5.065
5.044
5.018
4.988
4.954
4.916
4.874
4.828
4.779
4.727
4.672
4.614
4.555
4.493
4.43
4.365
4.3
4.235
4.169
4.104
4.04
3.977
3.915
3.856
3.799
3.744
3.693
3.645
3.601
5.1
5.093
5.081
5.065
5.044
5.018
4.988
4.954
4.916
4.874
4.829
4.78
4.728
4.673
4.616
4.557
4.495
4.432
4.368
4.303
4.238
4.173
4.108
4.044
3.981
3.92
3.86
3.803
3.749
3.698
3.65
3.607
5.1
5.093
5.081
5.065
5.044
5.019
4.989
4.955
4.917
4.876
4.831
4.782
4.731
4.676
4.619
4.56
4.5
4.437
4.374
4.309
4.244
4.18
4.115
4.052
3.989
3.928
3.87
3.813
3.759
3.709
3.661
3.618
5.099
5.093
5.081
5.065
5.044
5.019
4.99
4.956
4.919
4.878
4.833
4.786
4.735
4.681
4.625
4.566
4.506
4.444
4.381
4.318
4.254
4.19
4.126
4.063
4.002
3.941
3.883
3.827
3.774
3.724
3.677
3.634
5.034
5.027
5.015
4.998
4.976
4.95
4.919
4.884
4.844
4.801
4.754
4.703
4.65
4.593
4.534
4.473
4.41
4.345
4.28
4.213
4.147
4.08
4.014
3.949
3.885
3.823
3.763
3.706
3.651
3.6
3.552
3.508
5.034
5.027
5.015
4.998
4.976
4.95
4.919
4.884
4.845
4.802
4.755
4.704
4.651
4.595
4.536
4.475
4.412
4.348
4.282
4.216
4.15
4.084
4.018
3.953
3.89
3.828
3.768
3.711
3.657
3.605
3.558
3.514
5.034
5.027
5.015
4.998
4.977
4.95
4.92
4.885
4.846
4.803
4.757
4.707
4.654
4.598
4.54
4.479
4.417
4.353
4.288
4.222
4.157
4.091
4.026
3.961
3.898
3.837
3.778
3.721
3.667
3.616
3.569
3.525
5.034
5.027
5.015
4.998
4.977
4.951
4.921
4.887
4.848
4.806
4.76
4.71
4.658
4.603
4.545
4.485
4.424
4.36
4.296
4.232
4.166
4.101
4.037
3.973
3.911
3.85
3.792
3.736
3.682
3.632
3.585
3.542
4.97
4.963
4.95
4.932
4.91
4.883
4.851
4.814
4.774
4.729
4.68
4.628
4.573
4.515
4.454
4.391
4.327
4.261
4.194
4.126
4.058
3.991
3.924
3.858
3.793
3.731
3.67
3.613
3.558
3.506
3.458
3.414
4.97
4.963
4.95
4.933
4.91
4.883
4.851
4.815
4.774
4.73
4.681
4.63
4.575
4.517
4.456
4.394
4.329
4.264
4.197
4.129
4.062
3.995
3.928
3.862
3.798
3.736
3.675
3.618
3.563
3.512
3.464
3.42
4.97
4.963
4.95
4.933
4.911
4.884
4.852
4.816
4.776
4.732
4.684
4.632
4.578
4.52
4.46
4.398
4.334
4.269
4.203
4.136
4.069
4.002
3.936
3.871
3.807
3.745
3.685
3.628
3.574
3.523
3.475
3.432
4.97
4.963
4.95
4.933
4.911
4.884
4.853
4.818
4.778
4.734
4.687
4.636
4.582
4.525
4.466
4.405
4.342
4.277
4.212
4.145
4.079
4.013
3.948
3.883
3.82
3.759
3.7
3.643
3.59
3.539
3.492
3.449
4.907
4.899
4.886
4.868
4.845
4.817
4.784
4.746
4.704
4.658
4.608
4.554
4.497
4.437
4.375
4.311
4.244
4.177
4.108
4.039
3.97
3.901
3.833
3.767
3.701
3.638
3.577
3.519
3.464
3.412
3.364
3.32
4.907
4.899
4.886
4.868
4.845
4.817
4.784
4.747
4.705
4.659
4.609
4.555
4.499
4.439
4.377
4.313
4.247
4.18
4.111
4.043
3.974
3.905
3.838
3.771
3.706
3.643
3.582
3.524
3.469
3.418
3.37
3.326
4.907
4.899
4.887
4.869
4.846
4.818
4.785
4.748
4.706
4.661
4.611
4.558
4.502
4.443
4.381
4.318
4.252
4.185
4.118
4.049
3.981
3.913
3.846
3.78
3.715
3.653
3.592
3.535
3.48
3.429
3.381
3.338
4.907
4.9
4.887
4.869
4.846
4.819
4.787
4.75
4.709
4.664
4.615
4.562
4.507
4.448
4.388
4.325
4.26
4.194
4.127
4.059
3.992
3.925
3.858
3.793
3.729
3.667
3.607
3.551
3.497
3.446
3.399
3.356
4.845
4.837
4.824
4.805
4.781
4.752
4.718
4.679
4.635
4.588
4.536
4.481
4.422
4.36
4.296
4.23
4.162
4.093
4.023
3.952
3.882
3.812
3.743
3.675
3.609
3.545
3.483
3.424
3.369
3.317
3.269
3.224
4.845
4.837
4.824
4.805
4.781
4.752
4.718
4.68
4.636
4.589
4.537
4.482
4.424
4.362
4.299
4.233
4.165
4.096
4.026
3.956
3.886
3.816
3.747
3.679
3.614
3.55
3.488
3.43
3.375
3.323
3.275
3.23
4.845
4.837
4.824
4.806
4.782
4.753
4.719
4.681
4.638
4.591
4.54
4.485
4.427
4.366
4.303
4.237
4.17
4.102
4.033
3.963
3.893
3.824
3.756
3.689
3.623
3.56
3.499
3.441
3.386
3.334
3.287
3.243
4.845
4.838
4.825
4.806
4.783
4.754
4.721
4.683
4.641
4.594
4.543
4.489
4.432
4.372
4.309
4.245
4.178
4.111
4.042
3.973
3.905
3.836
3.768
3.702
3.637
3.575
3.515
3.457
3.403
3.352
3.305
3.261
4.784
4.776
4.762
4.743
4.718
4.688
4.653
4.612
4.568
4.518
4.465
4.408
4.347
4.284
4.218
4.15
4.08
4.009
3.937
3.865
3.793
3.722
3.652
3.583
3.516
3.451
3.389
3.329
3.273
3.221
3.172
3.128
4.784
4.776
4.763
4.743
4.719
4.689
4.653
4.613
4.568
4.519
4.466
4.409
4.349
4.286
4.22
4.152
4.083
4.012
3.941
3.869
3.797
3.726
3.656
3.588
3.521
3.456
3.394
3.335
3.279
3.227
3.179
3.134
4.784
4.777
4.763
4.744
4.719
4.69
4.655
4.615
4.57
4.522
4.469
4.412
4.353
4.29
4.225
4.158
4.089
4.019
3.948
3.876
3.805
3.735
3.665
3.597
3.531
3.467
3.405
3.346
3.291
3.239
3.191
3.147
4.785
4.777
4.763
4.745
4.72
4.691
4.656
4.617
4.573
4.525
4.473
4.417
4.358
4.296
4.232
4.165
4.097
4.028
3.958
3.887
3.817
3.747
3.679
3.611
3.546
3.482
3.421
3.363
3.309
3.257
3.21
3.166
4.724
4.716
4.702
4.682
4.657
4.625
4.589
4.547
4.501
4.45
4.394
4.335
4.273
4.208
4.14
4.07
3.998
3.926
3.852
3.778
3.705
3.632
3.561
3.491
3.422
3.357
3.294
3.234
3.177
3.124
3.076
3.031
4.724
4.716
4.702
4.683
4.657
4.626
4.589
4.548
4.502
4.451
4.396
4.337
4.275
4.21
4.142
4.073
4.001
3.929
3.856
3.782
3.709
3.637
3.565
3.495
3.428
3.362
3.299
3.24
3.183
3.131
3.082
3.038
4.725
4.717
4.703
4.683
4.658
4.627
4.591
4.55
4.504
4.453
4.399
4.34
4.279
4.214
4.147
4.078
4.007
3.935
3.863
3.79
3.717
3.645
3.575
3.505
3.438
3.373
3.311
3.251
3.196
3.143
3.095
3.051
4.725
4.717
4.704
4.684
4.659
4.628
4.593
4.552
4.507
4.457
4.403
4.345
4.285
4.221
4.155
4.086
4.016
3.945
3.873
3.801
3.73
3.659
3.589
3.52
3.453
3.389
3.328
3.269
3.214
3.162
3.114
3.07
4.666
4.658
4.643
4.622
4.596
4.563
4.526
4.482
4.434
4.382
4.325
4.264
4.199
4.132
4.062
3.99
3.917
3.842
3.767
3.691
3.616
3.542
3.469
3.398
3.329
3.262
3.198
3.138
3.081
3.027
2.978
2.933
4.666
4.658
4.643
4.623
4.596
4.564
4.526
4.483
4.435
4.383
4.326
4.265
4.201
4.134
4.065
3.993
3.92
3.845
3.77
3.695
3.621
3.547
3.474
3.403
3.334
3.268
3.204
3.144
3.087
3.034
2.985
2.94
4.666
4.658
4.644
4.623
4.597
4.565
4.528
4.485
4.438
4.386
4.329
4.269
4.205
4.139
4.07
3.999
3.926
3.852
3.778
3.703
3.629
3.556
3.484
3.413
3.345
3.279
3.216
3.156
3.099
3.047
2.998
2.953
4.667
4.659
4.645
4.624
4.599
4.567
4.53
4.488
4.441
4.389
4.334
4.274
4.212
4.146
4.078
4.007
3.935
3.863
3.789
3.715
3.642
3.57
3.498
3.428
3.361
3.296
3.233
3.174
3.118
3.066
3.018
2.974
5.052
5.119
5.088
5.182
5.152
5.125
5.239
5.211
5.185
5.161
5.287
5.262
5.239
5.216
5.195
5.322
5.299
5.277
5.256
5.236
5.218
5.99
5.984
5.976
5.964
5.95
5.932
5.912
5.888
5.862
5.832
5.8
5.765
5.727
5.687
5.644
5.598
5.55
5.5
5.448
5.393
5.337
5.279
5.221
5.161
5.1
5.04
4.979
4.919
4.861
4.804
4.75
4.698
5.983
5.978
5.97
5.958
5.944
5.927
5.907
5.884
5.858
5.829
5.797
5.763
5.726
5.686
5.644
5.599
5.552
5.503
5.451
5.398
5.343
5.287
5.229
5.171
5.111
5.052
4.993
4.935
4.878
4.822
4.769
4.719
5.976
5.971
5.962
5.951
5.937
5.92
5.901
5.878
5.853
5.825
5.794
5.76
5.724
5.685
5.644
5.6
5.554
5.506
5.456
5.404
5.35
5.295
5.239
5.182
5.124
5.067
5.009
4.953
4.897
4.844
4.792
4.744
5.967
5.962
5.953
5.943
5.929
5.912
5.893
5.871
5.847
5.819
5.789
5.756
5.721
5.683
5.643
5.601
5.556
5.509
5.46
5.41
5.358
5.304
5.25
5.195
5.139
5.083
5.028
4.973
4.919
4.867
4.818
4.771
5.956
5.951
5.943
5.932
5.919
5.903
5.884
5.863
5.839
5.812
5.783
5.752
5.717
5.681
5.642
5.601
5.557
5.512
5.465
5.416
5.366
5.314
5.262
5.208
5.155
5.101
5.047
4.995
4.943
4.893
4.845
4.801
5.943
5.938
5.93
5.92
5.907
5.892
5.874
5.853
5.83
5.804
5.776
5.746
5.713
5.677
5.64
5.6
5.558
5.515
5.469
5.422
5.374
5.324
5.274
5.223
5.171
5.12
5.068
5.018
4.969
4.921
4.875
4.833
5.927
5.923
5.916
5.906
5.893
5.879
5.861
5.841
5.819
5.794
5.767
5.738
5.706
5.672
5.636
5.598
5.558
5.517
5.473
5.428
5.382
5.335
5.286
5.238
5.188
5.139
5.091
5.043
4.996
4.95
4.907
4.866
5.91
5.906
5.899
5.889
5.877
5.863
5.847
5.828
5.806
5.783
5.757
5.729
5.699
5.666
5.632
5.596
5.558
5.518
5.476
5.434
5.39
5.345
5.299
5.253
5.206
5.16
5.113
5.068
5.024
4.981
4.94
4.902
5.89
5.886
5.879
5.87
5.859
5.845
5.83
5.812
5.791
5.769
5.744
5.718
5.689
5.658
5.626
5.591
5.555
5.518
5.479
5.438
5.397
5.354
5.311
5.267
5.224
5.18
5.137
5.094
5.053
5.013
4.975
4.939
5.867
5.863
5.856
5.848
5.837
5.825
5.81
5.793
5.774
5.753
5.73
5.705
5.677
5.649
5.618
5.586
5.552
5.516
5.48
5.442
5.403
5.363
5.323
5.282
5.241
5.2
5.16
5.121
5.082
5.045
5.01
4.976
5.841
5.837
5.831
5.823
5.813
5.801
5.787
5.772
5.754
5.734
5.712
5.689
5.663
5.636
5.608
5.578
5.546
5.513
5.479
5.444
5.407
5.371
5.333
5.296
5.258
5.22
5.183
5.147
5.112
5.078
5.045
5.015
5.811
5.807
5.802
5.795
5.786
5.775
5.762
5.747
5.73
5.712
5.692
5.67
5.647
5.622
5.595
5.567
5.538
5.508
5.476
5.444
5.411
5.377
5.343
5.308
5.274
5.24
5.206
5.173
5.141
5.11
5.081
5.054
5.777
5.774
5.769
5.763
5.755
5.744
5.733
5.719
5.704
5.687
5.668
5.648
5.627
5.604
5.579
5.554
5.527
5.5
5.471
5.442
5.412
5.381
5.35
5.319
5.289
5.258
5.228
5.199
5.17
5.143
5.117
5.093
5.741
5.739
5.734
5.729
5.721
5.712
5.701
5.689
5.675
5.66
5.643
5.624
5.604
5.584
5.561
5.538
5.514
5.489
5.463
5.437
5.41
5.383
5.355
5.328
5.301
5.274
5.247
5.222
5.197
5.173
5.151
5.13
5.711
5.71
5.706
5.701
5.694
5.686
5.675
5.664
5.651
5.636
5.621
5.603
5.585
5.566
5.545
5.524
5.501
5.478
5.455
5.43
5.406
5.381
5.356
5.331
5.307
5.282
5.259
5.236
5.214
5.193
5.173
5.155
5.908
5.902
5.893
5.882
5.867
5.849
5.828
5.803
5.776
5.746
5.713
5.678
5.639
5.598
5.554
5.508
5.459
5.408
5.355
5.3
5.244
5.186
5.127
5.068
5.008
4.948
4.888
4.83
4.773
4.717
4.664
4.614
5.902
5.897
5.888
5.877
5.862
5.844
5.823
5.8
5.773
5.744
5.711
5.676
5.638
5.598
5.555
5.509
5.462
5.412
5.36
5.306
5.251
5.194
5.137
5.079
5.02
4.961
4.903
4.846
4.79
4.736
4.684
4.635
5.895
5.89
5.882
5.87
5.856
5.839
5.818
5.795
5.769
5.74
5.709
5.674
5.637
5.598
5.556
5.511
5.465
5.416
5.365
5.313
5.259
5.204
5.148
5.091
5.034
4.977
4.92
4.864
4.81
4.757
4.707
4.66
5.887
5.882
5.874
5.863
5.849
5.832
5.812
5.789
5.764
5.736
5.705
5.672
5.636
5.597
5.556
5.513
5.468
5.42
5.371
5.32
5.268
5.214
5.16
5.105
5.049
4.994
4.939
4.885
4.833
4.782
4.733
4.688
5.877
5.872
5.864
5.853
5.84
5.823
5.804
5.782
5.758
5.73
5.701
5.668
5.633
5.596
5.556
5.514
5.471
5.425
5.377
5.328
5.277
5.226
5.173
5.12
5.066
5.013
4.96
4.908
4.858
4.809
4.762
4.718
5.866
5.861
5.853
5.842
5.829
5.813
5.795
5.774
5.75
5.724
5.695
5.664
5.63
5.594
5.556
5.515
5.473
5.429
5.383
5.336
5.287
5.237
5.187
5.136
5.085
5.033
4.983
4.933
4.884
4.838
4.793
4.751
5.852
5.847
5.84
5.83
5.817
5.802
5.784
5.764
5.741
5.715
5.688
5.658
5.625
5.591
5.554
5.516
5.475
5.433
5.389
5.344
5.297
5.249
5.201
5.152
5.104
5.055
5.006
4.959
4.913
4.869
4.826
4.786
5.836
5.831
5.824
5.814
5.802
5.788
5.771
5.751
5.73
5.706
5.679
5.65
5.62
5.587
5.552
5.515
5.476
5.436
5.394
5.351
5.307
5.262
5.216
5.169
5.123
5.077
5.031
4.986
4.943
4.901
4.861
4.823
5.818
5.813
5.806
5.797
5.786
5.772
5.756
5.737
5.717
5.694
5.669
5.641
5.612
5.581
5.548
5.513
5.476
5.438
5.399
5.358
5.316
5.273
5.23
5.187
5.143
5.099
5.057
5.014
4.973
4.934
4.897
4.862
5.796
5.792
5.786
5.777
5.766
5.753
5.738
5.721
5.701
5.68
5.656
5.63
5.603
5.573
5.542
5.509
5.475
5.439
5.402
5.364
5.325
5.285
5.244
5.204
5.163
5.122
5.082
5.043
5.005
4.968
4.934
4.901
5.772
5.768
5.762
5.754
5.744
5.732
5.718
5.702
5.683
5.663
5.641
5.617
5.591
5.564
5.535
5.504
5.472
5.438
5.404
5.368
5.332
5.295
5.258
5.22
5.182
5.145
5.108
5.072
5.037
5.003
4.971
4.942
5.745
5.741
5.736
5.728
5.719
5.708
5.695
5.679
5.663
5.644
5.623
5.601
5.577
5.552
5.525
5.496
5.467
5.436
5.404
5.371
5.338
5.304
5.27
5.235
5.201
5.167
5.134
5.101
5.069
5.039
5.01
4.983
5.714
5.711
5.706
5.699
5.691
5.68
5.668
5.654
5.639
5.622
5.603
5.582
5.56
5.537
5.512
5.486
5.459
5.431
5.402
5.373
5.342
5.312
5.281
5.25
5.219
5.188
5.158
5.129
5.101
5.074
5.048
5.024
5.68
5.678
5.673
5.668
5.66
5.651
5.64
5.627
5.613
5.597
5.58
5.561
5.541
5.52
5.497
5.474
5.449
5.424
5.398
5.371
5.344
5.317
5.289
5.261
5.234
5.207
5.181
5.155
5.13
5.107
5.085
5.064
5.652
5.651
5.647
5.642
5.635
5.626
5.616
5.604
5.591
5.576
5.56
5.543
5.524
5.504
5.483
5.462
5.439
5.416
5.392
5.367
5.342
5.317
5.292
5.267
5.243
5.218
5.195
5.172
5.15
5.129
5.109
5.091
5.827
5.821
5.813
5.8
5.785
5.766
5.745
5.72
5.692
5.661
5.628
5.591
5.552
5.51
5.465
5.418
5.369
5.317
5.264
5.209
5.152
5.094
5.035
4.976
4.916
4.857
4.798
4.741
4.684
4.63
4.579
4.53
5.822
5.817
5.808
5.796
5.781
5.763
5.741
5.717
5.69
5.66
5.626
5.591
5.552
5.511
5.467
5.421
5.372
5.322
5.269
5.215
5.16
5.103
5.046
4.987
4.929
4.871
4.814
4.757
4.702
4.649
4.599
4.551
5.816
5.811
5.802
5.79
5.776
5.758
5.737
5.713
5.687
5.657
5.625
5.589
5.552
5.511
5.469
5.423
5.376
5.327
5.276
5.223
5.169
5.114
5.057
5.001
4.944
4.887
4.831
4.776
4.723
4.672
4.623
4.577
5.809
5.804
5.795
5.784
5.769
5.752
5.732
5.708
5.682
5.654
5.622
5.588
5.551
5.512
5.47
5.426
5.38
5.332
5.283
5.231
5.179
5.125
5.071
5.016
4.961
4.906
4.852
4.798
4.747
4.697
4.649
4.605
5.8
5.795
5.787
5.775
5.761
5.745
5.725
5.702
5.677
5.649
5.619
5.586
5.55
5.512
5.472
5.429
5.385
5.338
5.29
5.24
5.19
5.138
5.085
5.032
4.979
4.926
4.874
4.822
4.772
4.725
4.679
4.636
5.789
5.784
5.776
5.766
5.752
5.736
5.717
5.695
5.671
5.644
5.614
5.582
5.548
5.511
5.472
5.432
5.389
5.344
5.298
5.25
5.201
5.151
5.1
5.05
4.998
4.948
4.897
4.848
4.801
4.755
4.711
4.67
5.777
5.772
5.764
5.754
5.741
5.725
5.707
5.686
5.663
5.637
5.609
5.578
5.545
5.51
5.473
5.433
5.392
5.349
5.305
5.259
5.213
5.165
5.117
5.068
5.019
4.971
4.923
4.876
4.83
4.787
4.745
4.706
5.762
5.758
5.75
5.741
5.728
5.713
5.696
5.676
5.654
5.629
5.602
5.573
5.541
5.507
5.472
5.434
5.395
5.354
5.312
5.269
5.224
5.179
5.133
5.087
5.041
4.995
4.949
4.905
4.862
4.82
4.781
4.744
5.746
5.741
5.734
5.725
5.713
5.699
5.682
5.663
5.642
5.619
5.593
5.565
5.536
5.504
5.47
5.434
5.397
5.359
5.319
5.278
5.236
5.193
5.15
5.106
5.062
5.019
4.976
4.935
4.894
4.855
4.819
4.784
5.726
5.722
5.715
5.707
5.695
5.682
5.667
5.649
5.629
5.607
5.583
5.556
5.528
5.498
5.467
5.433
5.398
5.362
5.325
5.286
5.247
5.206
5.166
5.125
5.085
5.044
5.004
4.965
4.928
4.892
4.857
4.825
5.704
5.7
5.694
5.686
5.675
5.663
5.648
5.632
5.613
5.592
5.57
5.545
5.519
5.491
5.461
5.43
5.398
5.364
5.329
5.293
5.257
5.219
5.182
5.144
5.106
5.069
5.032
4.997
4.962
4.929
4.897
4.868
5.679
5.675
5.669
5.662
5.652
5.641
5.627
5.612
5.595
5.575
5.554
5.532
5.507
5.481
5.454
5.425
5.395
5.364
5.332
5.299
5.265
5.231
5.197
5.162
5.128
5.094
5.061
5.028
4.997
4.966
4.938
4.911
5.65
5.647
5.642
5.635
5.626
5.616
5.603
5.589
5.573
5.556
5.536
5.516
5.493
5.47
5.444
5.418
5.391
5.362
5.333
5.303
5.273
5.242
5.211
5.18
5.149
5.118
5.088
5.059
5.031
5.004
4.979
4.955
5.619
5.616
5.612
5.606
5.598
5.588
5.577
5.564
5.55
5.534
5.516
5.497
5.477
5.455
5.432
5.409
5.384
5.358
5.332
5.305
5.277
5.25
5.222
5.194
5.167
5.14
5.113
5.088
5.063
5.04
5.018
4.997
5.593
5.591
5.587
5.582
5.575
5.566
5.555
5.543
5.53
5.515
5.499
5.481
5.462
5.442
5.421
5.399
5.376
5.352
5.328
5.303
5.278
5.253
5.228
5.203
5.178
5.153
5.13
5.107
5.084
5.064
5.044
5.026
5.748
5.742
5.733
5.72
5.705
5.686
5.663
5.638
5.609
5.578
5.543
5.506
5.466
5.423
5.377
5.329
5.279
5.227
5.173
5.118
5.061
5.003
4.944
4.885
4.826
4.767
4.708
4.652
4.596
4.543
4.493
4.445
5.744
5.738
5.729
5.717
5.701
5.682
5.661
5.636
5.608
5.577
5.543
5.506
5.467
5.424
5.38
5.333
5.284
5.233
5.18
5.125
5.069
5.013
4.955
4.897
4.839
4.781
4.724
4.669
4.615
4.563
4.513
4.467
5.738
5.733
5.724
5.712
5.697
5.678
5.657
5.633
5.605
5.575
5.542
5.506
5.467
5.426
5.382
5.337
5.289
5.239
5.187
5.134
5.079
5.024
4.968
4.911
4.855
4.798
4.743
4.689
4.636
4.586
4.538
4.493
5.732
5.726
5.718
5.706
5.691
5.673
5.652
5.629
5.602
5.572
5.54
5.505
5.468
5.428
5.385
5.341
5.294
5.245
5.195
5.143
5.09
5.037
4.982
4.927
4.872
4.818
4.764
4.712
4.661
4.612
4.565
4.522
5.724
5.718
5.71
5.699
5.684
5.667
5.647
5.624
5.598
5.569
5.538
5.504
5.468
5.429
5.388
5.345
5.299
5.252
5.204
5.154
5.103
5.051
4.998
4.945
4.892
4.839
4.787
4.737
4.687
4.64
4.596
4.554
5.714
5.709
5.701
5.69
5.676
5.659
5.64
5.618
5.593
5.565
5.535
5.502
5.467
5.43
5.39
5.348
5.305
5.26
5.213
5.165
5.115
5.065
5.015
4.964
4.913
4.862
4.813
4.764
4.717
4.671
4.629
4.588
5.703
5.698
5.69
5.679
5.666
5.65
5.631
5.61
5.586
5.56
5.531
5.499
5.466
5.43
5.392
5.352
5.31
5.267
5.222
5.176
5.129
5.081
5.032
4.984
4.935
4.887
4.839
4.793
4.748
4.705
4.664
4.626
5.69
5.685
5.677
5.667
5.655
5.639
5.621
5.601
5.578
5.553
5.525
5.495
5.463
5.429
5.393
5.355
5.315
5.274
5.231
5.187
5.142
5.097
5.051
5.004
4.958
4.912
4.867
4.823
4.781
4.74
4.701
4.665
5.674
5.67
5.663
5.653
5.641
5.626
5.609
5.59
5.568
5.544
5.518
5.49
5.459
5.427
5.393
5.357
5.319
5.28
5.239
5.198
5.156
5.113
5.069
5.026
4.982
4.939
4.897
4.855
4.815
4.777
4.74
4.707
5.657
5.652
5.645
5.636
5.625
5.611
5.595
5.577
5.557
5.534
5.509
5.483
5.454
5.424
5.391
5.357
5.322
5.285
5.247
5.208
5.169
5.128
5.088
5.047
5.006
4.966
4.926
4.888
4.851
4.815
4.781
4.75
5.636
5.632
5.626
5.617
5.607
5.594
5.579
5.562
5.543
5.522
5.499
5.474
5.447
5.418
5.388
5.357
5.324
5.29
5.254
5.218
5.181
5.144
5.106
5.068
5.031
4.993
4.957
4.921
4.887
4.854
4.823
4.794
5.613
5.609
5.603
5.595
5.586
5.574
5.56
5.544
5.527
5.507
5.486
5.462
5.438
5.411
5.383
5.354
5.324
5.292
5.26
5.227
5.193
5.158
5.124
5.089
5.055
5.021
4.987
4.955
4.924
4.894
4.866
4.839
5.586
5.583
5.577
5.57
5.562
5.551
5.538
5.524
5.508
5.49
5.47
5.449
5.426
5.402
5.376
5.35
5.322
5.293
5.264
5.233
5.203
5.172
5.14
5.109
5.078
5.048
5.018
4.989
4.961
4.934
4.909
4.885
5.557
5.554
5.55
5.544
5.536
5.526
5.514
5.501
5.487
5.47
5.452
5.433
5.412
5.39
5.367
5.343
5.318
5.292
5.265
5.238
5.21
5.182
5.154
5.127
5.099
5.072
5.046
5.02
4.995
4.972
4.95
4.929
5.532
5.53
5.527
5.521
5.514
5.505
5.494
5.482
5.468
5.453
5.436
5.419
5.399
5.379
5.357
5.335
5.312
5.288
5.263
5.238
5.213
5.188
5.162
5.137
5.112
5.087
5.064
5.041
5.018
4.998
4.978
4.96
5.67
5.664
5.655
5.642
5.626
5.606
5.583
5.557
5.528
5.496
5.46
5.422
5.381
5.337
5.291
5.242
5.191
5.138
5.084
5.028
4.97
4.912
4.853
4.794
4.735
4.677
4.619
4.563
4.508
4.456
4.406
4.36
5.666
5.661
5.651
5.639
5.623
5.604
5.581
5.556
5.527
5.495
5.46
5.423
5.382
5.339
5.294
5.246
5.196
5.144
5.091
5.036
4.98
4.923
4.865
4.807
4.749
4.692
4.636
4.58
4.527
4.476
4.428
4.382
5.662
5.656
5.647
5.634
5.619
5.6
5.578
5.553
5.525
5.494
5.46
5.423
5.384
5.342
5.297
5.251
5.202
5.151
5.099
5.045
4.991
4.935
4.879
4.822
4.766
4.71
4.655
4.601
4.549
4.5
4.452
4.408
5.656
5.65
5.641
5.629
5.614
5.596
5.574
5.55
5.523
5.492
5.459
5.424
5.385
5.344
5.301
5.256
5.208
5.159
5.108
5.056
5.003
4.949
4.894
4.839
4.785
4.73
4.677
4.625
4.575
4.526
4.481
4.438
5.649
5.643
5.635
5.623
5.608
5.59
5.57
5.546
5.52
5.49
5.458
5.424
5.386
5.347
5.305
5.261
5.215
5.167
5.118
5.068
5.016
4.964
4.911
4.858
4.805
4.753
4.701
4.651
4.603
4.556
4.512
4.471
5.64
5.635
5.626
5.615
5.601
5.584
5.564
5.541
5.515
5.487
5.456
5.423
5.387
5.349
5.308
5.266
5.222
5.176
5.129
5.08
5.03
4.98
4.929
4.878
4.828
4.777
4.728
4.68
4.633
4.588
4.546
4.507
5.63
5.625
5.617
5.606
5.592
5.576
5.557
5.535
5.51
5.483
5.453
5.421
5.387
5.35
5.312
5.271
5.229
5.185
5.139
5.093
5.045
4.997
4.949
4.9
4.851
4.803
4.756
4.71
4.665
4.623
4.583
4.545
5.618
5.613
5.605
5.595
5.582
5.566
5.548
5.527
5.503
5.478
5.449
5.419
5.386
5.351
5.314
5.275
5.235
5.193
5.15
5.106
5.061
5.015
4.969
4.922
4.876
4.831
4.786
4.742
4.7
4.66
4.621
4.586
5.604
5.599
5.592
5.582
5.569
5.555
5.537
5.517
5.495
5.471
5.444
5.415
5.384
5.351
5.316
5.279
5.241
5.201
5.161
5.119
5.076
5.033
4.989
4.945
4.902
4.859
4.817
4.776
4.736
4.698
4.662
4.629
5.587
5.583
5.576
5.567
5.555
5.541
5.525
5.506
5.485
5.462
5.437
5.41
5.38
5.349
5.316
5.282
5.246
5.209
5.17
5.131
5.091
5.051
5.01
4.969
4.928
4.888
4.849
4.81
4.773
4.738
4.704
4.673
5.568
5.564
5.558
5.549
5.538
5.525
5.51
5.493
5.473
5.452
5.428
5.402
5.375
5.346
5.315
5.283
5.25
5.215
5.18
5.143
5.106
5.068
5.03
4.992
4.955
4.918
4.881
4.846
4.812
4.779
4.748
4.72
5.547
5.543
5.537
5.529
5.519
5.507
5.493
5.477
5.459
5.439
5.417
5.393
5.368
5.341
5.313
5.283
5.252
5.22
5.188
5.154
5.12
5.085
5.05
5.016
4.981
4.947
4.914
4.882
4.851
4.821
4.793
4.767
5.522
5.518
5.513
5.506
5.497
5.486
5.473
5.458
5.442
5.424
5.403
5.382
5.359
5.334
5.308
5.281
5.253
5.224
5.194
5.163
5.132
5.101
5.07
5.038
5.007
4.977
4.947
4.918
4.89
4.863
4.838
4.815
5.494
5.492
5.487
5.481
5.473
5.463
5.451
5.438
5.423
5.406
5.388
5.368
5.347
5.325
5.301
5.277
5.251
5.225
5.198
5.171
5.143
5.115
5.086
5.058
5.031
5.004
4.977
4.951
4.927
4.903
4.882
4.861
5.472
5.47
5.466
5.46
5.453
5.444
5.433
5.42
5.406
5.391
5.374
5.356
5.336
5.315
5.294
5.271
5.247
5.223
5.198
5.173
5.148
5.122
5.096
5.071