/*--------------------------------*- C++ -*----------------------------------*\
  =========                 |
  \\      /  F ield         | OpenFOAM: The Open Source CFD Toolbox
   \\    /   O peration     | Website:  https://openfoam.org
    \\  /    A nd           | Version:  6
     \\/     M anipulation  |
\*---------------------------------------------------------------------------*/
FoamFile
{
    version     2.0;
    format      ascii;
    class       volScalarField;
    location    "15";
    object      Umag;
}
// * * * * * * * * * * * * * * * * * * * * * * * * * * * * * * * * * * * * * //

dimensions      [0 0 0 0 0 0 0];

internalField   nonuniform List<scalar> 
16128
(
5.791e-06
8.23e-06
8.574e-06
8.746e-06
8.95e-06
9.207e-06
9.521e-06
9.894e-06
1.033e-05
1.083e-05
1.139e-05
1.202e-05
1.273e-05
1.352e-05
1.438e-05
1.533e-05
1.637e-05
1.751e-05
1.873e-05
2.005e-05
2.148e-05
2.299e-05
2.461e-05
2.631e-05
2.81e-05
2.996e-05
3.188e-05
3.384e-05
3.582e-05
3.779e-05
3.972e-05
4.159e-05
5.79e-06
8.228e-06
8.572e-06
8.744e-06
8.948e-06
9.204e-06
9.517e-06
9.889e-06
1.032e-05
1.082e-05
1.138e-05
1.201e-05
1.272e-05
1.35e-05
1.437e-05
1.531e-05
1.635e-05
1.747e-05
1.869e-05
2.001e-05
2.142e-05
2.293e-05
2.453e-05
2.623e-05
2.8e-05
2.985e-05
3.175e-05
3.369e-05
3.565e-05
3.761e-05
3.952e-05
4.137e-05
5.787e-06
8.224e-06
8.568e-06
8.739e-06
8.942e-06
9.198e-06
9.51e-06
9.88e-06
1.031e-05
1.08e-05
1.136e-05
1.199e-05
1.269e-05
1.347e-05
1.433e-05
1.527e-05
1.63e-05
1.741e-05
1.862e-05
1.992e-05
2.132e-05
2.281e-05
2.439e-05
2.606e-05
2.781e-05
2.963e-05
3.15e-05
3.341e-05
3.534e-05
3.726e-05
3.914e-05
4.096e-05
5.783e-06
8.219e-06
8.562e-06
8.733e-06
8.934e-06
9.188e-06
9.498e-06
9.866e-06
1.029e-05
1.078e-05
1.134e-05
1.196e-05
1.266e-05
1.343e-05
1.428e-05
1.521e-05
1.622e-05
1.732e-05
1.851e-05
1.979e-05
2.117e-05
2.263e-05
2.419e-05
2.582e-05
2.754e-05
2.931e-05
3.114e-05
3.301e-05
3.489e-05
3.675e-05
3.858e-05
4.035e-05
6.135e-06
8.715e-06
9.07e-06
9.238e-06
9.435e-06
9.681e-06
9.982e-06
1.034e-05
1.075e-05
1.123e-05
1.176e-05
1.237e-05
1.304e-05
1.377e-05
1.459e-05
1.548e-05
1.644e-05
1.749e-05
1.862e-05
1.984e-05
2.113e-05
2.251e-05
2.396e-05
2.549e-05
2.709e-05
2.873e-05
3.042e-05
3.214e-05
3.386e-05
3.557e-05
3.724e-05
3.885e-05
6.134e-06
8.713e-06
9.068e-06
9.236e-06
9.432e-06
9.678e-06
9.979e-06
1.033e-05
1.075e-05
1.122e-05
1.176e-05
1.236e-05
1.302e-05
1.376e-05
1.457e-05
1.546e-05
1.642e-05
1.746e-05
1.859e-05
1.98e-05
2.109e-05
2.246e-05
2.39e-05
2.542e-05
2.7e-05
2.864e-05
3.032e-05
3.202e-05
3.373e-05
3.543e-05
3.708e-05
3.867e-05
6.131e-06
8.709e-06
9.064e-06
9.232e-06
9.427e-06
9.672e-06
9.971e-06
1.033e-05
1.074e-05
1.121e-05
1.174e-05
1.234e-05
1.3e-05
1.373e-05
1.454e-05
1.542e-05
1.638e-05
1.741e-05
1.853e-05
1.972e-05
2.1e-05
2.235e-05
2.378e-05
2.528e-05
2.685e-05
2.846e-05
3.012e-05
3.179e-05
3.348e-05
3.515e-05
3.677e-05
3.834e-05
6.128e-06
8.704e-06
9.059e-06
9.225e-06
9.419e-06
9.664e-06
9.961e-06
1.031e-05
1.072e-05
1.119e-05
1.172e-05
1.231e-05
1.297e-05
1.37e-05
1.449e-05
1.536e-05
1.631e-05
1.733e-05
1.843e-05
1.961e-05
2.087e-05
2.221e-05
2.361e-05
2.509e-05
2.662e-05
2.82e-05
2.982e-05
3.146e-05
3.311e-05
3.474e-05
3.633e-05
3.785e-05
6.466e-06
9.18e-06
9.547e-06
9.71e-06
9.899e-06
1.014e-05
1.042e-05
1.076e-05
1.116e-05
1.161e-05
1.212e-05
1.269e-05
1.332e-05
1.402e-05
1.479e-05
1.562e-05
1.652e-05
1.749e-05
1.853e-05
1.965e-05
2.084e-05
2.209e-05
2.341e-05
2.478e-05
2.621e-05
2.768e-05
2.918e-05
3.069e-05
3.221e-05
3.37e-05
3.515e-05
3.655e-05
6.464e-06
9.178e-06
9.545e-06
9.708e-06
9.896e-06
1.013e-05
1.042e-05
1.076e-05
1.116e-05
1.161e-05
1.212e-05
1.268e-05
1.331e-05
1.401e-05
1.477e-05
1.56e-05
1.65e-05
1.747e-05
1.851e-05
1.962e-05
2.08e-05
2.205e-05
2.336e-05
2.473e-05
2.614e-05
2.76e-05
2.909e-05
3.06e-05
3.21e-05
3.358e-05
3.503e-05
3.641e-05
6.462e-06
9.175e-06
9.541e-06
9.704e-06
9.892e-06
1.013e-05
1.041e-05
1.075e-05
1.115e-05
1.159e-05
1.21e-05
1.267e-05
1.33e-05
1.399e-05
1.474e-05
1.557e-05
1.646e-05
1.742e-05
1.845e-05
1.955e-05
2.072e-05
2.196e-05
2.326e-05
2.461e-05
2.601e-05
2.746e-05
2.893e-05
3.041e-05
3.189e-05
3.335e-05
3.478e-05
3.614e-05
6.459e-06
9.17e-06
9.535e-06
9.698e-06
9.884e-06
1.012e-05
1.04e-05
1.074e-05
1.113e-05
1.158e-05
1.208e-05
1.264e-05
1.327e-05
1.395e-05
1.47e-05
1.552e-05
1.64e-05
1.735e-05
1.837e-05
1.946e-05
2.061e-05
2.183e-05
2.311e-05
2.444e-05
2.582e-05
2.724e-05
2.868e-05
3.014e-05
3.159e-05
3.302e-05
3.441e-05
3.574e-05
6.781e-06
9.624e-06
1e-05
1.016e-05
1.034e-05
1.057e-05
1.084e-05
1.117e-05
1.155e-05
1.198e-05
1.246e-05
1.3e-05
1.36e-05
1.426e-05
1.497e-05
1.575e-05
1.659e-05
1.75e-05
1.846e-05
1.949e-05
2.058e-05
2.173e-05
2.293e-05
2.417e-05
2.546e-05
2.677e-05
2.811e-05
2.946e-05
3.079e-05
3.211e-05
3.339e-05
3.461e-05
6.78e-06
9.623e-06
9.999e-06
1.016e-05
1.034e-05
1.057e-05
1.084e-05
1.117e-05
1.154e-05
1.197e-05
1.246e-05
1.299e-05
1.359e-05
1.425e-05
1.496e-05
1.574e-05
1.658e-05
1.748e-05
1.844e-05
1.946e-05
2.055e-05
2.169e-05
2.288e-05
2.412e-05
2.54e-05
2.671e-05
2.804e-05
2.938e-05
3.071e-05
3.202e-05
3.328e-05
3.449e-05
6.778e-06
9.62e-06
9.995e-06
1.015e-05
1.033e-05
1.056e-05
1.083e-05
1.116e-05
1.153e-05
1.196e-05
1.244e-05
1.298e-05
1.357e-05
1.423e-05
1.494e-05
1.571e-05
1.654e-05
1.744e-05
1.839e-05
1.941e-05
2.049e-05
2.162e-05
2.28e-05
2.403e-05
2.529e-05
2.659e-05
2.79e-05
2.922e-05
3.054e-05
3.183e-05
3.308e-05
3.427e-05
6.774e-06
9.615e-06
9.99e-06
1.015e-05
1.033e-05
1.055e-05
1.083e-05
1.115e-05
1.152e-05
1.195e-05
1.243e-05
1.296e-05
1.355e-05
1.42e-05
1.49e-05
1.567e-05
1.649e-05
1.738e-05
1.832e-05
1.933e-05
2.039e-05
2.151e-05
2.268e-05
2.389e-05
2.513e-05
2.641e-05
2.77e-05
2.9e-05
3.029e-05
3.156e-05
3.279e-05
3.396e-05
7.08e-06
1.005e-05
1.043e-05
1.059e-05
1.076e-05
1.098e-05
1.124e-05
1.155e-05
1.191e-05
1.232e-05
1.278e-05
1.329e-05
1.386e-05
1.448e-05
1.515e-05
1.588e-05
1.667e-05
1.751e-05
1.841e-05
1.936e-05
2.036e-05
2.141e-05
2.251e-05
2.364e-05
2.48e-05
2.599e-05
2.719e-05
2.84e-05
2.959e-05
3.076e-05
3.189e-05
3.296e-05
7.079e-06
1.004e-05
1.043e-05
1.058e-05
1.076e-05
1.098e-05
1.124e-05
1.155e-05
1.191e-05
1.232e-05
1.278e-05
1.329e-05
1.385e-05
1.447e-05
1.514e-05
1.587e-05
1.666e-05
1.749e-05
1.839e-05
1.934e-05
2.033e-05
2.138e-05
2.247e-05
2.36e-05
2.476e-05
2.594e-05
2.713e-05
2.833e-05
2.952e-05
3.068e-05
3.18e-05
3.287e-05
7.077e-06
1.004e-05
1.043e-05
1.058e-05
1.075e-05
1.097e-05
1.123e-05
1.154e-05
1.19e-05
1.231e-05
1.277e-05
1.327e-05
1.384e-05
1.445e-05
1.512e-05
1.585e-05
1.663e-05
1.746e-05
1.835e-05
1.929e-05
2.028e-05
2.132e-05
2.24e-05
2.352e-05
2.467e-05
2.584e-05
2.702e-05
2.82e-05
2.938e-05
3.053e-05
3.164e-05
3.269e-05
7.074e-06
1.004e-05
1.042e-05
1.058e-05
1.075e-05
1.096e-05
1.122e-05
1.153e-05
1.189e-05
1.229e-05
1.275e-05
1.326e-05
1.381e-05
1.443e-05
1.509e-05
1.581e-05
1.658e-05
1.741e-05
1.829e-05
1.922e-05
2.02e-05
2.123e-05
2.23e-05
2.34e-05
2.453e-05
2.569e-05
2.685e-05
2.802e-05
2.918e-05
3.031e-05
3.14e-05
3.243e-05
7.363e-06
1.044e-05
1.084e-05
1.099e-05
1.116e-05
1.136e-05
1.162e-05
1.191e-05
1.226e-05
1.265e-05
1.308e-05
1.357e-05
1.41e-05
1.469e-05
1.532e-05
1.601e-05
1.675e-05
1.753e-05
1.837e-05
1.925e-05
2.017e-05
2.114e-05
2.214e-05
2.318e-05
2.424e-05
2.532e-05
2.64e-05
2.748e-05
2.855e-05
2.96e-05
3.061e-05
3.156e-05
7.362e-06
1.044e-05
1.084e-05
1.099e-05
1.115e-05
1.136e-05
1.161e-05
1.191e-05
1.225e-05
1.264e-05
1.308e-05
1.356e-05
1.41e-05
1.468e-05
1.532e-05
1.6e-05
1.673e-05
1.752e-05
1.835e-05
1.923e-05
2.015e-05
2.111e-05
2.211e-05
2.314e-05
2.42e-05
2.527e-05
2.635e-05
2.743e-05
2.849e-05
2.953e-05
3.054e-05
3.149e-05
7.36e-06
1.044e-05
1.083e-05
1.098e-05
1.115e-05
1.136e-05
1.161e-05
1.19e-05
1.225e-05
1.263e-05
1.307e-05
1.355e-05
1.408e-05
1.467e-05
1.53e-05
1.598e-05
1.671e-05
1.749e-05
1.831e-05
1.919e-05
2.01e-05
2.106e-05
2.205e-05
2.308e-05
2.412e-05
2.519e-05
2.626e-05
2.733e-05
2.838e-05
2.941e-05
3.04e-05
3.134e-05
7.357e-06
1.043e-05
1.083e-05
1.098e-05
1.114e-05
1.135e-05
1.16e-05
1.189e-05
1.223e-05
1.262e-05
1.305e-05
1.353e-05
1.406e-05
1.464e-05
1.527e-05
1.594e-05
1.667e-05
1.744e-05
1.826e-05
1.913e-05
2.004e-05
2.098e-05
2.197e-05
2.298e-05
2.401e-05
2.506e-05
2.612e-05
2.717e-05
2.821e-05
2.923e-05
3.02e-05
3.113e-05
7.627e-06
1.082e-05
1.122e-05
1.137e-05
1.153e-05
1.172e-05
1.197e-05
1.225e-05
1.258e-05
1.295e-05
1.336e-05
1.383e-05
1.433e-05
1.489e-05
1.549e-05
1.613e-05
1.682e-05
1.756e-05
1.833e-05
1.915e-05
2.001e-05
2.091e-05
2.183e-05
2.278e-05
2.375e-05
2.473e-05
2.572e-05
2.67e-05
2.766e-05
2.86e-05
2.951e-05
3.037e-05
7.626e-06
1.081e-05
1.122e-05
1.136e-05
1.152e-05
1.172e-05
1.196e-05
1.225e-05
1.257e-05
1.294e-05
1.336e-05
1.382e-05
1.433e-05
1.488e-05
1.548e-05
1.612e-05
1.681e-05
1.754e-05
1.832e-05
1.914e-05
1.999e-05
2.088e-05
2.18e-05
2.275e-05
2.372e-05
2.469e-05
2.568e-05
2.665e-05
2.762e-05
2.855e-05
2.945e-05
3.031e-05
7.625e-06
1.081e-05
1.121e-05
1.136e-05
1.152e-05
1.172e-05
1.196e-05
1.224e-05
1.257e-05
1.294e-05
1.335e-05
1.381e-05
1.431e-05
1.486e-05
1.546e-05
1.61e-05
1.679e-05
1.752e-05
1.829e-05
1.91e-05
1.995e-05
2.084e-05
2.175e-05
2.269e-05
2.365e-05
2.462e-05
2.56e-05
2.657e-05
2.752e-05
2.845e-05
2.934e-05
3.019e-05
7.622e-06
1.081e-05
1.121e-05
1.136e-05
1.151e-05
1.171e-05
1.195e-05
1.223e-05
1.256e-05
1.293e-05
1.334e-05
1.379e-05
1.43e-05
1.484e-05
1.544e-05
1.607e-05
1.675e-05
1.748e-05
1.825e-05
1.905e-05
1.99e-05
2.077e-05
2.168e-05
2.261e-05
2.356e-05
2.452e-05
2.548e-05
2.644e-05
2.738e-05
2.83e-05
2.918e-05
3.001e-05
7.874e-06
1.116e-05
1.157e-05
1.172e-05
1.187e-05
1.206e-05
1.229e-05
1.256e-05
1.287e-05
1.323e-05
1.363e-05
1.406e-05
1.454e-05
1.507e-05
1.563e-05
1.624e-05
1.689e-05
1.758e-05
1.831e-05
1.908e-05
1.987e-05
2.07e-05
2.156e-05
2.243e-05
2.332e-05
2.422e-05
2.513e-05
2.602e-05
2.69e-05
2.775e-05
2.857e-05
2.934e-05
7.873e-06
1.116e-05
1.157e-05
1.171e-05
1.187e-05
1.206e-05
1.229e-05
1.256e-05
1.287e-05
1.323e-05
1.362e-05
1.406e-05
1.454e-05
1.506e-05
1.563e-05
1.623e-05
1.688e-05
1.757e-05
1.83e-05
1.906e-05
1.986e-05
2.068e-05
2.154e-05
2.241e-05
2.33e-05
2.419e-05
2.509e-05
2.598e-05
2.686e-05
2.771e-05
2.852e-05
2.929e-05
7.871e-06
1.116e-05
1.157e-05
1.171e-05
1.186e-05
1.205e-05
1.228e-05
1.255e-05
1.287e-05
1.322e-05
1.361e-05
1.405e-05
1.453e-05
1.505e-05
1.561e-05
1.622e-05
1.686e-05
1.755e-05
1.827e-05
1.903e-05
1.982e-05
2.065e-05
2.149e-05
2.236e-05
2.324e-05
2.413e-05
2.503e-05
2.591e-05
2.678e-05
2.762e-05
2.843e-05
2.92e-05
7.869e-06
1.116e-05
1.156e-05
1.171e-05
1.186e-05
1.205e-05
1.228e-05
1.255e-05
1.286e-05
1.321e-05
1.36e-05
1.404e-05
1.451e-05
1.503e-05
1.559e-05
1.619e-05
1.683e-05
1.752e-05
1.823e-05
1.899e-05
1.977e-05
2.059e-05
2.143e-05
2.229e-05
2.317e-05
2.405e-05
2.493e-05
2.581e-05
2.667e-05
2.75e-05
2.83e-05
2.906e-05
8.102e-06
1.148e-05
1.19e-05
1.204e-05
1.219e-05
1.237e-05
1.259e-05
1.285e-05
1.315e-05
1.349e-05
1.387e-05
1.428e-05
1.474e-05
1.524e-05
1.577e-05
1.635e-05
1.696e-05
1.761e-05
1.829e-05
1.901e-05
1.976e-05
2.053e-05
2.132e-05
2.213e-05
2.296e-05
2.379e-05
2.462e-05
2.544e-05
2.624e-05
2.702e-05
2.777e-05
2.847e-05
8.101e-06
1.148e-05
1.19e-05
1.204e-05
1.219e-05
1.237e-05
1.259e-05
1.285e-05
1.315e-05
1.348e-05
1.386e-05
1.428e-05
1.474e-05
1.523e-05
1.577e-05
1.634e-05
1.695e-05
1.76e-05
1.828e-05
1.9e-05
1.974e-05
2.051e-05
2.13e-05
2.211e-05
2.293e-05
2.376e-05
2.459e-05
2.541e-05
2.621e-05
2.698e-05
2.773e-05
2.843e-05
8.099e-06
1.148e-05
1.19e-05
1.204e-05
1.218e-05
1.237e-05
1.259e-05
1.284e-05
1.314e-05
1.348e-05
1.385e-05
1.427e-05
1.473e-05
1.522e-05
1.575e-05
1.633e-05
1.694e-05
1.758e-05
1.826e-05
1.897e-05
1.971e-05
2.048e-05
2.127e-05
2.207e-05
2.289e-05
2.371e-05
2.453e-05
2.535e-05
2.614e-05
2.691e-05
2.765e-05
2.835e-05
8.097e-06
1.148e-05
1.189e-05
1.203e-05
1.218e-05
1.236e-05
1.258e-05
1.284e-05
1.313e-05
1.347e-05
1.384e-05
1.426e-05
1.471e-05
1.52e-05
1.574e-05
1.63e-05
1.691e-05
1.755e-05
1.823e-05
1.893e-05
1.967e-05
2.043e-05
2.121e-05
2.201e-05
2.282e-05
2.364e-05
2.445e-05
2.526e-05
2.605e-05
2.681e-05
2.754e-05
2.823e-05
8.311e-06
1.178e-05
1.22e-05
1.234e-05
1.248e-05
1.265e-05
1.287e-05
1.312e-05
1.34e-05
1.372e-05
1.409e-05
1.448e-05
1.492e-05
1.539e-05
1.59e-05
1.645e-05
1.702e-05
1.764e-05
1.828e-05
1.895e-05
1.965e-05
2.038e-05
2.112e-05
2.187e-05
2.264e-05
2.341e-05
2.418e-05
2.493e-05
2.567e-05
2.639e-05
2.708e-05
2.772e-05
8.31e-06
1.178e-05
1.22e-05
1.234e-05
1.248e-05
1.265e-05
1.286e-05
1.311e-05
1.34e-05
1.372e-05
1.408e-05
1.448e-05
1.491e-05
1.539e-05
1.589e-05
1.644e-05
1.702e-05
1.763e-05
1.827e-05
1.894e-05
1.964e-05
2.036e-05
2.11e-05
2.186e-05
2.262e-05
2.339e-05
2.415e-05
2.491e-05
2.565e-05
2.636e-05
2.704e-05
2.769e-05
8.309e-06
1.177e-05
1.22e-05
1.233e-05
1.247e-05
1.265e-05
1.286e-05
1.311e-05
1.339e-05
1.372e-05
1.408e-05
1.447e-05
1.491e-05
1.538e-05
1.588e-05
1.643e-05
1.7e-05
1.761e-05
1.825e-05
1.892e-05
1.962e-05
2.034e-05
2.107e-05
2.182e-05
2.258e-05
2.335e-05
2.411e-05
2.486e-05
2.559e-05
2.63e-05
2.698e-05
2.762e-05
8.306e-06
1.177e-05
1.219e-05
1.233e-05
1.247e-05
1.264e-05
1.286e-05
1.31e-05
1.339e-05
1.371e-05
1.407e-05
1.446e-05
1.489e-05
1.536e-05
1.587e-05
1.641e-05
1.698e-05
1.759e-05
1.822e-05
1.889e-05
1.958e-05
2.03e-05
2.103e-05
2.177e-05
2.253e-05
2.329e-05
2.404e-05
2.479e-05
2.551e-05
2.622e-05
2.689e-05
2.752e-05
8.501e-06
1.205e-05
1.247e-05
1.261e-05
1.274e-05
1.291e-05
1.312e-05
1.335e-05
1.363e-05
1.394e-05
1.428e-05
1.467e-05
1.508e-05
1.553e-05
1.602e-05
1.653e-05
1.708e-05
1.766e-05
1.827e-05
1.891e-05
1.957e-05
2.025e-05
2.094e-05
2.165e-05
2.237e-05
2.308e-05
2.38e-05
2.45e-05
2.519e-05
2.585e-05
2.648e-05
2.708e-05
8.501e-06
1.204e-05
1.247e-05
1.261e-05
1.274e-05
1.291e-05
1.311e-05
1.335e-05
1.363e-05
1.394e-05
1.428e-05
1.466e-05
1.508e-05
1.553e-05
1.601e-05
1.653e-05
1.708e-05
1.766e-05
1.827e-05
1.89e-05
1.956e-05
2.024e-05
2.093e-05
2.164e-05
2.235e-05
2.307e-05
2.378e-05
2.448e-05
2.517e-05
2.583e-05
2.646e-05
2.705e-05
8.499e-06
1.204e-05
1.247e-05
1.26e-05
1.274e-05
1.291e-05
1.311e-05
1.335e-05
1.362e-05
1.393e-05
1.428e-05
1.466e-05
1.507e-05
1.552e-05
1.6e-05
1.652e-05
1.707e-05
1.764e-05
1.825e-05
1.888e-05
1.954e-05
2.021e-05
2.09e-05
2.161e-05
2.232e-05
2.303e-05
2.374e-05
2.444e-05
2.512e-05
2.578e-05
2.641e-05
2.7e-05
8.497e-06
1.204e-05
1.247e-05
1.26e-05
1.274e-05
1.29e-05
1.311e-05
1.334e-05
1.362e-05
1.392e-05
1.427e-05
1.465e-05
1.506e-05
1.551e-05
1.599e-05
1.65e-05
1.705e-05
1.762e-05
1.822e-05
1.885e-05
1.951e-05
2.018e-05
2.087e-05
2.157e-05
2.227e-05
2.298e-05
2.368e-05
2.438e-05
2.505e-05
2.571e-05
2.633e-05
2.692e-05
8.672e-06
1.229e-05
1.272e-05
1.285e-05
1.298e-05
1.314e-05
1.334e-05
1.357e-05
1.383e-05
1.413e-05
1.446e-05
1.483e-05
1.523e-05
1.566e-05
1.612e-05
1.662e-05
1.714e-05
1.769e-05
1.827e-05
1.887e-05
1.95e-05
2.014e-05
2.079e-05
2.146e-05
2.213e-05
2.281e-05
2.348e-05
2.413e-05
2.477e-05
2.539e-05
2.598e-05
2.653e-05
8.672e-06
1.229e-05
1.272e-05
1.285e-05
1.298e-05
1.314e-05
1.334e-05
1.357e-05
1.383e-05
1.413e-05
1.446e-05
1.483e-05
1.522e-05
1.565e-05
1.612e-05
1.661e-05
1.713e-05
1.768e-05
1.826e-05
1.886e-05
1.949e-05
2.013e-05
2.078e-05
2.145e-05
2.212e-05
2.279e-05
2.346e-05
2.412e-05
2.476e-05
2.537e-05
2.596e-05
2.651e-05
8.67e-06
1.228e-05
1.272e-05
1.285e-05
1.298e-05
1.314e-05
1.334e-05
1.356e-05
1.383e-05
1.412e-05
1.446e-05
1.482e-05
1.522e-05
1.565e-05
1.611e-05
1.66e-05
1.712e-05
1.767e-05
1.825e-05
1.885e-05
1.947e-05
2.011e-05
2.076e-05
2.142e-05
2.209e-05
2.276e-05
2.343e-05
2.408e-05
2.472e-05
2.533e-05
2.592e-05
2.647e-05
8.668e-06
1.228e-05
1.271e-05
1.284e-05
1.297e-05
1.314e-05
1.333e-05
1.356e-05
1.382e-05
1.412e-05
1.445e-05
1.481e-05
1.521e-05
1.564e-05
1.61e-05
1.659e-05
1.711e-05
1.765e-05
1.823e-05
1.882e-05
1.944e-05
2.008e-05
2.073e-05
2.139e-05
2.205e-05
2.272e-05
2.338e-05
2.403e-05
2.466e-05
2.527e-05
2.585e-05
2.64e-05
8.824e-06
1.25e-05
1.294e-05
1.307e-05
1.319e-05
1.335e-05
1.354e-05
1.376e-05
1.402e-05
1.43e-05
1.462e-05
1.497e-05
1.536e-05
1.577e-05
1.621e-05
1.669e-05
1.719e-05
1.772e-05
1.827e-05
1.884e-05
1.943e-05
2.004e-05
2.067e-05
2.13e-05
2.193e-05
2.257e-05
2.32e-05
2.382e-05
2.442e-05
2.5e-05
2.556e-05
2.607e-05
8.824e-06
1.25e-05
1.294e-05
1.306e-05
1.319e-05
1.335e-05
1.354e-05
1.376e-05
1.401e-05
1.43e-05
1.462e-05
1.497e-05
1.535e-05
1.577e-05
1.621e-05
1.668e-05
1.718e-05
1.771e-05
1.826e-05
1.883e-05
1.943e-05
2.004e-05
2.066e-05
2.129e-05
2.192e-05
2.256e-05
2.319e-05
2.38e-05
2.441e-05
2.499e-05
2.554e-05
2.605e-05
8.822e-06
1.25e-05
1.293e-05
1.306e-05
1.319e-05
1.335e-05
1.353e-05
1.376e-05
1.401e-05
1.43e-05
1.461e-05
1.496e-05
1.535e-05
1.576e-05
1.62e-05
1.667e-05
1.717e-05
1.77e-05
1.825e-05
1.882e-05
1.941e-05
2.002e-05
2.064e-05
2.127e-05
2.19e-05
2.253e-05
2.316e-05
2.377e-05
2.437e-05
2.495e-05
2.55e-05
2.602e-05
8.82e-06
1.249e-05
1.293e-05
1.306e-05
1.319e-05
1.334e-05
1.353e-05
1.375e-05
1.4e-05
1.429e-05
1.461e-05
1.496e-05
1.534e-05
1.575e-05
1.619e-05
1.666e-05
1.716e-05
1.768e-05
1.823e-05
1.88e-05
1.939e-05
1.999e-05
2.061e-05
2.124e-05
2.187e-05
2.249e-05
2.312e-05
2.373e-05
2.433e-05
2.49e-05
2.545e-05
2.596e-05
8.957e-06
1.269e-05
1.313e-05
1.325e-05
1.338e-05
1.353e-05
1.371e-05
1.393e-05
1.417e-05
1.445e-05
1.476e-05
1.51e-05
1.547e-05
1.587e-05
1.629e-05
1.675e-05
1.723e-05
1.774e-05
1.827e-05
1.882e-05
1.938e-05
1.997e-05
2.056e-05
2.116e-05
2.177e-05
2.237e-05
2.297e-05
2.356e-05
2.413e-05
2.468e-05
2.52e-05
2.569e-05
8.956e-06
1.269e-05
1.313e-05
1.325e-05
1.338e-05
1.353e-05
1.371e-05
1.393e-05
1.417e-05
1.445e-05
1.476e-05
1.51e-05
1.547e-05
1.586e-05
1.629e-05
1.675e-05
1.723e-05
1.773e-05
1.826e-05
1.881e-05
1.938e-05
1.996e-05
2.055e-05
2.115e-05
2.176e-05
2.236e-05
2.296e-05
2.354e-05
2.411e-05
2.466e-05
2.518e-05
2.567e-05
8.955e-06
1.268e-05
1.312e-05
1.325e-05
1.337e-05
1.353e-05
1.371e-05
1.392e-05
1.417e-05
1.445e-05
1.475e-05
1.509e-05
1.546e-05
1.586e-05
1.628e-05
1.674e-05
1.722e-05
1.772e-05
1.825e-05
1.88e-05
1.936e-05
1.994e-05
2.054e-05
2.113e-05
2.174e-05
2.234e-05
2.293e-05
2.352e-05
2.409e-05
2.463e-05
2.515e-05
2.564e-05
8.953e-06
1.268e-05
1.312e-05
1.325e-05
1.337e-05
1.352e-05
1.37e-05
1.392e-05
1.416e-05
1.444e-05
1.475e-05
1.508e-05
1.545e-05
1.585e-05
1.627e-05
1.673e-05
1.721e-05
1.771e-05
1.823e-05
1.878e-05
1.934e-05
1.992e-05
2.051e-05
2.111e-05
2.171e-05
2.231e-05
2.29e-05
2.348e-05
2.405e-05
2.459e-05
2.511e-05
2.559e-05
9.07e-06
1.285e-05
1.329e-05
1.341e-05
1.353e-05
1.368e-05
1.386e-05
1.407e-05
1.431e-05
1.458e-05
1.488e-05
1.521e-05
1.556e-05
1.595e-05
1.636e-05
1.68e-05
1.727e-05
1.776e-05
1.827e-05
1.88e-05
1.934e-05
1.99e-05
2.047e-05
2.105e-05
2.163e-05
2.221e-05
2.278e-05
2.334e-05
2.389e-05
2.441e-05
2.491e-05
2.537e-05
9.069e-06
1.284e-05
1.329e-05
1.341e-05
1.353e-05
1.368e-05
1.386e-05
1.407e-05
1.431e-05
1.458e-05
1.487e-05
1.52e-05
1.556e-05
1.595e-05
1.636e-05
1.68e-05
1.727e-05
1.775e-05
1.826e-05
1.879e-05
1.934e-05
1.99e-05
2.047e-05
2.104e-05
2.162e-05
2.22e-05
2.277e-05
2.333e-05
2.387e-05
2.44e-05
2.489e-05
2.536e-05
9.068e-06
1.284e-05
1.329e-05
1.341e-05
1.353e-05
1.368e-05
1.386e-05
1.406e-05
1.43e-05
1.457e-05
1.487e-05
1.52e-05
1.556e-05
1.594e-05
1.635e-05
1.679e-05
1.726e-05
1.774e-05
1.825e-05
1.878e-05
1.932e-05
1.988e-05
2.045e-05
2.103e-05
2.16e-05
2.218e-05
2.275e-05
2.331e-05
2.385e-05
2.437e-05
2.487e-05
2.533e-05
9.066e-06
1.284e-05
1.328e-05
1.341e-05
1.353e-05
1.368e-05
1.385e-05
1.406e-05
1.43e-05
1.457e-05
1.487e-05
1.519e-05
1.555e-05
1.593e-05
1.635e-05
1.678e-05
1.725e-05
1.773e-05
1.824e-05
1.876e-05
1.931e-05
1.986e-05
2.043e-05
2.1e-05
2.158e-05
2.215e-05
2.272e-05
2.327e-05
2.381e-05
2.433e-05
2.483e-05
2.529e-05
9.164e-06
1.298e-05
1.342e-05
1.355e-05
1.366e-05
1.381e-05
1.398e-05
1.419e-05
1.442e-05
1.468e-05
1.497e-05
1.529e-05
1.564e-05
1.602e-05
1.642e-05
1.685e-05
1.73e-05
1.777e-05
1.827e-05
1.878e-05
1.931e-05
1.985e-05
2.04e-05
2.096e-05
2.152e-05
2.207e-05
2.263e-05
2.317e-05
2.369e-05
2.419e-05
2.467e-05
2.512e-05
9.164e-06
1.298e-05
1.342e-05
1.355e-05
1.366e-05
1.381e-05
1.398e-05
1.419e-05
1.442e-05
1.468e-05
1.497e-05
1.529e-05
1.564e-05
1.602e-05
1.642e-05
1.685e-05
1.73e-05
1.777e-05
1.826e-05
1.878e-05
1.93e-05
1.984e-05
2.04e-05
2.095e-05
2.151e-05
2.207e-05
2.262e-05
2.316e-05
2.368e-05
2.418e-05
2.466e-05
2.51e-05
9.162e-06
1.297e-05
1.342e-05
1.354e-05
1.366e-05
1.381e-05
1.398e-05
1.418e-05
1.442e-05
1.468e-05
1.497e-05
1.529e-05
1.564e-05
1.601e-05
1.641e-05
1.684e-05
1.729e-05
1.776e-05
1.826e-05
1.877e-05
1.929e-05
1.983e-05
2.038e-05
2.094e-05
2.149e-05
2.205e-05
2.26e-05
2.314e-05
2.366e-05
2.416e-05
2.463e-05
2.508e-05
9.161e-06
1.297e-05
1.342e-05
1.354e-05
1.366e-05
1.38e-05
1.398e-05
1.418e-05
1.441e-05
1.467e-05
1.496e-05
1.528e-05
1.563e-05
1.6e-05
1.64e-05
1.683e-05
1.728e-05
1.775e-05
1.824e-05
1.875e-05
1.928e-05
1.982e-05
2.036e-05
2.092e-05
2.147e-05
2.202e-05
2.257e-05
2.311e-05
2.363e-05
2.413e-05
2.46e-05
2.504e-05
9.239e-06
1.308e-05
1.353e-05
1.365e-05
1.377e-05
1.391e-05
1.408e-05
1.428e-05
1.451e-05
1.477e-05
1.505e-05
1.537e-05
1.571e-05
1.607e-05
1.647e-05
1.688e-05
1.733e-05
1.779e-05
1.827e-05
1.877e-05
1.928e-05
1.981e-05
2.035e-05
2.089e-05
2.143e-05
2.197e-05
2.251e-05
2.303e-05
2.354e-05
2.402e-05
2.449e-05
2.492e-05
9.238e-06
1.308e-05
1.353e-05
1.365e-05
1.377e-05
1.391e-05
1.408e-05
1.428e-05
1.451e-05
1.476e-05
1.505e-05
1.536e-05
1.57e-05
1.607e-05
1.646e-05
1.688e-05
1.732e-05
1.778e-05
1.827e-05
1.877e-05
1.928e-05
1.981e-05
2.034e-05
2.088e-05
2.142e-05
2.196e-05
2.25e-05
2.302e-05
2.353e-05
2.401e-05
2.447e-05
2.491e-05
9.237e-06
1.308e-05
1.353e-05
1.365e-05
1.377e-05
1.391e-05
1.408e-05
1.428e-05
1.45e-05
1.476e-05
1.505e-05
1.536e-05
1.57e-05
1.607e-05
1.646e-05
1.688e-05
1.732e-05
1.778e-05
1.826e-05
1.876e-05
1.927e-05
1.979e-05
2.033e-05
2.087e-05
2.141e-05
2.195e-05
2.248e-05
2.3e-05
2.351e-05
2.399e-05
2.445e-05
2.488e-05
9.236e-06
1.308e-05
1.353e-05
1.365e-05
1.376e-05
1.39e-05
1.407e-05
1.427e-05
1.45e-05
1.476e-05
1.504e-05
1.535e-05
1.569e-05
1.606e-05
1.645e-05
1.687e-05
1.731e-05
1.777e-05
1.825e-05
1.874e-05
1.926e-05
1.978e-05
2.031e-05
2.085e-05
2.139e-05
2.193e-05
2.246e-05
2.298e-05
2.348e-05
2.396e-05
2.442e-05
2.485e-05
9.295e-06
1.316e-05
1.361e-05
1.373e-05
1.385e-05
1.398e-05
1.415e-05
1.435e-05
1.457e-05
1.483e-05
1.511e-05
1.542e-05
1.575e-05
1.611e-05
1.65e-05
1.691e-05
1.734e-05
1.78e-05
1.827e-05
1.876e-05
1.927e-05
1.978e-05
2.031e-05
2.084e-05
2.137e-05
2.19e-05
2.242e-05
2.293e-05
2.343e-05
2.39e-05
2.435e-05
2.477e-05
9.294e-06
1.316e-05
1.361e-05
1.373e-05
1.384e-05
1.398e-05
1.415e-05
1.435e-05
1.457e-05
1.483e-05
1.511e-05
1.542e-05
1.575e-05
1.611e-05
1.65e-05
1.691e-05
1.734e-05
1.779e-05
1.827e-05
1.876e-05
1.926e-05
1.978e-05
2.03e-05
2.083e-05
2.136e-05
2.189e-05
2.241e-05
2.292e-05
2.342e-05
2.389e-05
2.434e-05
2.476e-05
9.293e-06
1.316e-05
1.361e-05
1.373e-05
1.384e-05
1.398e-05
1.415e-05
1.435e-05
1.457e-05
1.482e-05
1.51e-05
1.541e-05
1.575e-05
1.611e-05
1.649e-05
1.69e-05
1.734e-05
1.779e-05
1.826e-05
1.875e-05
1.925e-05
1.977e-05
2.029e-05
2.082e-05
2.135e-05
2.188e-05
2.24e-05
2.291e-05
2.34e-05
2.387e-05
2.432e-05
2.474e-05
9.292e-06
1.316e-05
1.361e-05
1.373e-05
1.384e-05
1.398e-05
1.415e-05
1.434e-05
1.457e-05
1.482e-05
1.51e-05
1.541e-05
1.574e-05
1.61e-05
1.649e-05
1.69e-05
1.733e-05
1.778e-05
1.825e-05
1.874e-05
1.924e-05
1.975e-05
2.027e-05
2.08e-05
2.133e-05
2.185e-05
2.237e-05
2.288e-05
2.337e-05
2.385e-05
2.429e-05
2.471e-05
9.332e-06
1.321e-05
1.366e-05
1.378e-05
1.39e-05
1.403e-05
1.42e-05
1.439e-05
1.462e-05
1.487e-05
1.515e-05
1.545e-05
1.578e-05
1.614e-05
1.652e-05
1.693e-05
1.736e-05
1.781e-05
1.827e-05
1.876e-05
1.925e-05
1.976e-05
2.028e-05
2.08e-05
2.133e-05
2.185e-05
2.236e-05
2.287e-05
2.335e-05
2.382e-05
2.427e-05
2.468e-05
9.331e-06
1.321e-05
1.366e-05
1.378e-05
1.389e-05
1.403e-05
1.42e-05
1.439e-05
1.462e-05
1.487e-05
1.515e-05
1.545e-05
1.578e-05
1.614e-05
1.652e-05
1.693e-05
1.735e-05
1.78e-05
1.827e-05
1.875e-05
1.925e-05
1.976e-05
2.028e-05
2.08e-05
2.132e-05
2.184e-05
2.236e-05
2.286e-05
2.335e-05
2.381e-05
2.426e-05
2.467e-05
9.33e-06
1.321e-05
1.366e-05
1.378e-05
1.389e-05
1.403e-05
1.42e-05
1.439e-05
1.461e-05
1.486e-05
1.514e-05
1.545e-05
1.578e-05
1.613e-05
1.652e-05
1.692e-05
1.735e-05
1.78e-05
1.826e-05
1.874e-05
1.924e-05
1.975e-05
2.026e-05
2.079e-05
2.131e-05
2.183e-05
2.234e-05
2.284e-05
2.333e-05
2.38e-05
2.424e-05
2.465e-05
9.328e-06
1.321e-05
1.366e-05
1.378e-05
1.389e-05
1.403e-05
1.419e-05
1.439e-05
1.461e-05
1.486e-05
1.514e-05
1.544e-05
1.577e-05
1.613e-05
1.651e-05
1.691e-05
1.734e-05
1.779e-05
1.825e-05
1.873e-05
1.923e-05
1.973e-05
2.025e-05
2.077e-05
2.129e-05
2.181e-05
2.232e-05
2.282e-05
2.331e-05
2.377e-05
2.421e-05
2.462e-05
9.349e-06
1.324e-05
1.369e-05
1.381e-05
1.392e-05
1.406e-05
1.422e-05
1.442e-05
1.464e-05
1.489e-05
1.516e-05
1.547e-05
1.58e-05
1.615e-05
1.653e-05
1.694e-05
1.736e-05
1.781e-05
1.827e-05
1.875e-05
1.925e-05
1.975e-05
2.027e-05
2.079e-05
2.131e-05
2.183e-05
2.234e-05
2.284e-05
2.332e-05
2.379e-05
2.423e-05
2.464e-05
9.349e-06
1.324e-05
1.369e-05
1.381e-05
1.392e-05
1.406e-05
1.422e-05
1.442e-05
1.464e-05
1.489e-05
1.516e-05
1.547e-05
1.58e-05
1.615e-05
1.653e-05
1.693e-05
1.736e-05
1.781e-05
1.827e-05
1.875e-05
1.924e-05
1.975e-05
2.026e-05
2.078e-05
2.13e-05
2.182e-05
2.233e-05
2.283e-05
2.331e-05
2.378e-05
2.422e-05
2.463e-05
9.348e-06
1.323e-05
1.369e-05
1.38e-05
1.392e-05
1.405e-05
1.422e-05
1.441e-05
1.463e-05
1.488e-05
1.516e-05
1.546e-05
1.579e-05
1.615e-05
1.653e-05
1.693e-05
1.735e-05
1.78e-05
1.826e-05
1.874e-05
1.924e-05
1.974e-05
2.025e-05
2.077e-05
2.129e-05
2.181e-05
2.232e-05
2.281e-05
2.33e-05
2.376e-05
2.42e-05
2.461e-05
9.346e-06
1.323e-05
1.368e-05
1.38e-05
1.391e-05
1.405e-05
1.422e-05
1.441e-05
1.463e-05
1.488e-05
1.516e-05
1.546e-05
1.579e-05
1.614e-05
1.652e-05
1.692e-05
1.735e-05
1.779e-05
1.825e-05
1.873e-05
1.922e-05
1.973e-05
2.024e-05
2.075e-05
2.127e-05
2.179e-05
2.23e-05
2.279e-05
2.327e-05
2.374e-05
2.417e-05
2.458e-05
3.126e-05
2.941e-05
3.039e-05
2.757e-05
2.856e-05
2.948e-05
2.5e-05
2.595e-05
2.685e-05
2.77e-05
1.891e-05
1.967e-05
2.041e-05
2.111e-05
2.177e-05
6.28e-06
6.55e-06
6.813e-06
7.067e-06
7.308e-06
7.534e-06
5.779e-06
8.212e-06
8.554e-06
8.724e-06
8.924e-06
9.176e-06
9.484e-06
9.849e-06
1.027e-05
1.076e-05
1.131e-05
1.193e-05
1.261e-05
1.337e-05
1.421e-05
1.512e-05
1.612e-05
1.721e-05
1.837e-05
1.963e-05
2.098e-05
2.241e-05
2.392e-05
2.552e-05
2.718e-05
2.891e-05
3.069e-05
3.249e-05
3.431e-05
3.611e-05
3.787e-05
3.957e-05
5.773e-06
8.204e-06
8.545e-06
8.713e-06
8.912e-06
9.162e-06
9.467e-06
9.828e-06
1.025e-05
1.073e-05
1.127e-05
1.188e-05
1.256e-05
1.331e-05
1.413e-05
1.503e-05
1.601e-05
1.707e-05
1.821e-05
1.944e-05
2.075e-05
2.214e-05
2.361e-05
2.516e-05
2.677e-05
2.844e-05
3.015e-05
3.188e-05
3.362e-05
3.535e-05
3.704e-05
3.867e-05
5.767e-06
8.195e-06
8.535e-06
8.702e-06
8.898e-06
9.146e-06
9.447e-06
9.804e-06
1.022e-05
1.069e-05
1.123e-05
1.183e-05
1.25e-05
1.323e-05
1.404e-05
1.492e-05
1.588e-05
1.691e-05
1.803e-05
1.922e-05
2.049e-05
2.184e-05
2.326e-05
2.475e-05
2.63e-05
2.79e-05
2.954e-05
3.12e-05
3.286e-05
3.451e-05
3.611e-05
3.766e-05
5.76e-06
8.184e-06
8.523e-06
8.689e-06
8.883e-06
9.128e-06
9.426e-06
9.779e-06
1.019e-05
1.066e-05
1.118e-05
1.177e-05
1.243e-05
1.315e-05
1.394e-05
1.48e-05
1.574e-05
1.675e-05
1.783e-05
1.899e-05
2.022e-05
2.152e-05
2.289e-05
2.432e-05
2.581e-05
2.733e-05
2.89e-05
3.047e-05
3.205e-05
3.361e-05
3.513e-05
3.658e-05
5.753e-06
8.174e-06
8.511e-06
8.675e-06
8.868e-06
9.11e-06
9.404e-06
9.752e-06
1.016e-05
1.062e-05
1.114e-05
1.172e-05
1.236e-05
1.307e-05
1.384e-05
1.468e-05
1.559e-05
1.657e-05
1.762e-05
1.874e-05
1.993e-05
2.118e-05
2.25e-05
2.387e-05
2.529e-05
2.674e-05
2.823e-05
2.972e-05
3.121e-05
3.268e-05
3.411e-05
3.547e-05
5.745e-06
8.163e-06
8.499e-06
8.661e-06
8.852e-06
9.091e-06
9.381e-06
9.725e-06
1.012e-05
1.058e-05
1.109e-05
1.166e-05
1.229e-05
1.298e-05
1.373e-05
1.456e-05
1.544e-05
1.639e-05
1.741e-05
1.849e-05
1.964e-05
2.085e-05
2.211e-05
2.342e-05
2.477e-05
2.615e-05
2.756e-05
2.897e-05
3.037e-05
3.175e-05
3.309e-05
3.436e-05
5.738e-06
8.152e-06
8.487e-06
8.648e-06
8.836e-06
9.072e-06
9.359e-06
9.698e-06
1.009e-05
1.054e-05
1.104e-05
1.16e-05
1.222e-05
1.289e-05
1.363e-05
1.443e-05
1.53e-05
1.622e-05
1.721e-05
1.825e-05
1.936e-05
2.051e-05
2.172e-05
2.297e-05
2.426e-05
2.557e-05
2.69e-05
2.824e-05
2.956e-05
3.085e-05
3.21e-05
3.329e-05
5.731e-06
8.141e-06
8.475e-06
8.634e-06
8.82e-06
9.054e-06
9.337e-06
9.672e-06
1.006e-05
1.05e-05
1.099e-05
1.154e-05
1.215e-05
1.281e-05
1.353e-05
1.432e-05
1.516e-05
1.605e-05
1.701e-05
1.802e-05
1.909e-05
2.02e-05
2.136e-05
2.255e-05
2.378e-05
2.503e-05
2.629e-05
2.754e-05
2.879e-05
3e-05
3.117e-05
3.229e-05
5.724e-06
8.131e-06
8.464e-06
8.622e-06
8.806e-06
9.037e-06
9.317e-06
9.647e-06
1.003e-05
1.046e-05
1.095e-05
1.149e-05
1.209e-05
1.274e-05
1.344e-05
1.421e-05
1.503e-05
1.59e-05
1.683e-05
1.781e-05
1.884e-05
1.991e-05
2.102e-05
2.217e-05
2.334e-05
2.452e-05
2.572e-05
2.691e-05
2.808e-05
2.923e-05
3.032e-05
3.137e-05
5.717e-06
8.12e-06
8.452e-06
8.608e-06
8.791e-06
9.019e-06
9.296e-06
9.623e-06
1e-05
1.043e-05
1.091e-05
1.144e-05
1.203e-05
1.267e-05
1.336e-05
1.411e-05
1.491e-05
1.576e-05
1.666e-05
1.761e-05
1.861e-05
1.965e-05
2.072e-05
2.182e-05
2.294e-05
2.407e-05
2.521e-05
2.634e-05
2.745e-05
2.853e-05
2.957e-05
3.055e-05
5.705e-06
8.101e-06
8.43e-06
8.586e-06
8.766e-06
8.992e-06
9.267e-06
9.589e-06
9.962e-06
1.038e-05
1.086e-05
1.138e-05
1.196e-05
1.259e-05
1.327e-05
1.4e-05
1.479e-05
1.562e-05
1.65e-05
1.743e-05
1.839e-05
1.94e-05
2.043e-05
2.149e-05
2.257e-05
2.366e-05
2.475e-05
2.583e-05
2.689e-05
2.792e-05
2.89e-05
2.982e-05
5.661e-06
8.027e-06
8.351e-06
8.504e-06
8.682e-06
8.904e-06
9.174e-06
9.492e-06
9.858e-06
1.027e-05
1.074e-05
1.125e-05
1.182e-05
1.243e-05
1.31e-05
1.382e-05
1.458e-05
1.539e-05
1.625e-05
1.715e-05
1.809e-05
1.906e-05
2.006e-05
2.108e-05
2.212e-05