/*--------------------------------*- C++ -*----------------------------------*\
  =========                 |
  \\      /  F ield         | OpenFOAM: The Open Source CFD Toolbox
   \\    /   O peration     | Website:  https://openfoam.org
    \\  /    A nd           | Version:  6
     \\/     M anipulation  |
\*---------------------------------------------------------------------------*/
FoamFile
{
    version     2.0;
    format      ascii;
    class       volScalarField;
    location    "20";
    object      T;
}
// * * * * * * * * * * * * * * * * * * * * * * * * * * * * * * * * * * * * * //

dimensions      [0 0 0 1 0 0 0];

internalField   nonuniform List<scalar> 
16128
(
7.331
7.33
7.327
7.323
7.317
7.31
7.302
7.292
7.281
7.269
7.256
7.241
7.225
7.207
7.189
7.169
7.147
7.124
7.1
7.075
7.048
7.019
6.99
6.958
6.926
6.891
6.855
6.817
6.776
6.73
6.678
6.612
7.327
7.325
7.322
7.318
7.313
7.306
7.297
7.288
7.277
7.265
7.251
7.236
7.22
7.203
7.184
7.164
7.142
7.119
7.095
7.069
7.042
7.014
6.984
6.952
6.919
6.884
6.847
6.808
6.765
6.719
6.665
6.599
7.318
7.316
7.313
7.309
7.303
7.296
7.288
7.279
7.268
7.256
7.242
7.227
7.211
7.194
7.175
7.154
7.133
7.11
7.085
7.059
7.032
7.003
6.972
6.94
6.906
6.87
6.831
6.79
6.746
6.697
6.642
6.574
7.304
7.302
7.299
7.295
7.29
7.283
7.275
7.265
7.254
7.242
7.228
7.214
7.197
7.18
7.161
7.14
7.119
7.095
7.07
7.044
7.016
6.987
6.955
6.922
6.887
6.849
6.809
6.766
6.719
6.668
6.61
6.541
7.321
7.319
7.316
7.312
7.306
7.299
7.291
7.281
7.27
7.258
7.244
7.229
7.212
7.194
7.175
7.155
7.133
7.109
7.084
7.058
7.03
7
6.969
6.936
6.9
6.863
6.823
6.779
6.73
6.673
6.603
6.512
7.316
7.315
7.312
7.307
7.302
7.295
7.286
7.277
7.265
7.253
7.239
7.224
7.208
7.19
7.171
7.15
7.128
7.104
7.079
7.053
7.024
6.995
6.963
6.93
6.894
6.856
6.815
6.77
6.721
6.663
6.593
6.504
7.307
7.306
7.303
7.298
7.293
7.286
7.277
7.268
7.256
7.244
7.23
7.215
7.199
7.181
7.161
7.141
7.118
7.095
7.07
7.043
7.014
6.984
6.952
6.918
6.881
6.843
6.801
6.755
6.704
6.646
6.576
6.49
7.293
7.292
7.289
7.285
7.279
7.272
7.264
7.254
7.243
7.23
7.217
7.202
7.185
7.167
7.148
7.127
7.104
7.081
7.055
7.028
6.999
6.968
6.936
6.901
6.864
6.824
6.78
6.733
6.681
6.622
6.553
6.471
7.3
7.298
7.295
7.291
7.285
7.277
7.269
7.259
7.247
7.234
7.22
7.204
7.187
7.168
7.148
7.127
7.103
7.079
7.052
7.024
6.994
6.962
6.927
6.89
6.851
6.808
6.76
6.708
6.647
6.577
6.491
6.385
7.295
7.294
7.291
7.286
7.28
7.273
7.264
7.254
7.243
7.23
7.216
7.2
7.183
7.164
7.144
7.122
7.099
7.074
7.047
7.019
6.989
6.956
6.922
6.885
6.845
6.802
6.754
6.701
6.641
6.57
6.486
6.383
7.287
7.285
7.282
7.277
7.271
7.264
7.255
7.245
7.234
7.221
7.207
7.191
7.174
7.155
7.135
7.113
7.09
7.065
7.038
7.01
6.979
6.946
6.912
6.874
6.834
6.79
6.742
6.689
6.628
6.559
6.477
6.378
7.273
7.271
7.268
7.264
7.258
7.251
7.242
7.232
7.221
7.208
7.193
7.178
7.16
7.142
7.121
7.1
7.076
7.051
7.024
6.995
6.965
6.932
6.896
6.859
6.818
6.773
6.725
6.671
6.611
6.543
6.464
6.372
7.269
7.267
7.264
7.259
7.253
7.246
7.236
7.226
7.214
7.2
7.185
7.168
7.15
7.13
7.109
7.086
7.061
7.034
7.005
6.975
6.942
6.906
6.868
6.826
6.781
6.732
6.677
6.615
6.545
6.463
6.368
6.255
7.265
7.263
7.26
7.255
7.249
7.241
7.232
7.221
7.209
7.196
7.181
7.164
7.146
7.126
7.105
7.081
7.057
7.03
7.001
6.97
6.937
6.901
6.863
6.822
6.776
6.727
6.672
6.61
6.54
6.46
6.366
6.257
7.256
7.254
7.251
7.246
7.24
7.233
7.223
7.213
7.201
7.187
7.172
7.155
7.137
7.117
7.096
7.073
7.048
7.021
6.992
6.961
6.928
6.892
6.854
6.812
6.767
6.717
6.662
6.601
6.532
6.454
6.363
6.259
7.243
7.241
7.238
7.233
7.227
7.219
7.21
7.2
7.188
7.174
7.159
7.143
7.124
7.105
7.083
7.06
7.035
7.008
6.979
6.948
6.915
6.879
6.84
6.798
6.753
6.703
6.649
6.588
6.521
6.445
6.359
6.261
7.229
7.227
7.224
7.219
7.212
7.204
7.194
7.183
7.17
7.156
7.139
7.122
7.102
7.081
7.058
7.033
7.006
6.977
6.946
6.912
6.876
6.836
6.794
6.748
6.697
6.641
6.579
6.51
6.432
6.344
6.243
6.13
7.225
7.223
7.22
7.215
7.208
7.2
7.19
7.179
7.166
7.151
7.135
7.118
7.098
7.077
7.054
7.029
7.002
6.973
6.942
6.908
6.872
6.832
6.79
6.744
6.693
6.637
6.576
6.507
6.43
6.343
6.244
6.134
7.217
7.215
7.211
7.206
7.2
7.191
7.182
7.17
7.158
7.143
7.127
7.109
7.09
7.069
7.046
7.021
6.994
6.965
6.934
6.9
6.864
6.824
6.782
6.736
6.685
6.63
6.569
6.501
6.426
6.341
6.246
6.14
7.204
7.202
7.199
7.194
7.187
7.179
7.169
7.158
7.145
7.131
7.115
7.097
7.078
7.057
7.034
7.009
6.982
6.953
6.922
6.888
6.852
6.812
6.77
6.724
6.674
6.619
6.559
6.493
6.419
6.338
6.248
6.149
7.181
7.179
7.175
7.17
7.162
7.154
7.143
7.131
7.117
7.102
7.085
7.066
7.045
7.022
6.997
6.97
6.941
6.909
6.875
6.838
6.799
6.756
6.709
6.658
6.602
6.541
6.474
6.399
6.316
6.224
6.123
6.011
7.177
7.175
7.171
7.166
7.158
7.15
7.139
7.127
7.113
7.098
7.081
7.062
7.041
7.018
6.993
6.966
6.937
6.906
6.872
6.835
6.795
6.752
6.706
6.655
6.599
6.538
6.472
6.398
6.316
6.225
6.125
6.017
7.169
7.167
7.163
7.157
7.15
7.142
7.131
7.119
7.105
7.09
7.073
7.054
7.033
7.01
6.986
6.959
6.93
6.898
6.864
6.828
6.788
6.745
6.699
6.648
6.593
6.533
6.467
6.394
6.314
6.226
6.13
6.026
7.157
7.154
7.151
7.145
7.138
7.129
7.119
7.107
7.094
7.078
7.061
7.042
7.021
6.999
6.974
6.947
6.918
6.887
6.853
6.817
6.778
6.735
6.689
6.639
6.585
6.525
6.461
6.39
6.312
6.228
6.136
6.038
7.125
7.123
7.118
7.112
7.105
7.095
7.084
7.071
7.057
7.04
7.021
7.001
6.978
6.954
6.927
6.898
6.867
6.833
6.796
6.756
6.713
6.666
6.616
6.561
6.501
6.436
6.364
6.286
6.201
6.108
6.007
5.9
7.121
7.119
7.115
7.109
7.101
7.092
7.08
7.068
7.053
7.036
7.018
6.997
6.975
6.95
6.924
6.895
6.863
6.829
6.793
6.753
6.71
6.663
6.613
6.558
6.499
6.434
6.363
6.286
6.201
6.11
6.011
5.906
7.113
7.111
7.107
7.101
7.093
7.084
7.073
7.06
7.045
7.029
7.01
6.99
6.968
6.943
6.917
6.888
6.856
6.823
6.786
6.746
6.704
6.658
6.608
6.553
6.494
6.43
6.361
6.285
6.202
6.113
6.017
5.916
7.102
7.099
7.095
7.089
7.082
7.072
7.061
7.049
7.034
7.018
6.999
6.979
6.957
6.933
6.906
6.877
6.846
6.813
6.776
6.737
6.695
6.649
6.599
6.546
6.488
6.425
6.357
6.283
6.203
6.117
6.026
5.93
7.062
7.059
7.055
7.048
7.04
7.03
7.018
7.004
6.989
6.971
6.951
6.929
6.905
6.879
6.85
6.819
6.785
6.749
6.709
6.666
6.62
6.571
6.517
6.458
6.395
6.327
6.253
6.173
6.087
5.995
5.897
5.794
7.058
7.056
7.051
7.045
7.037
7.027
7.015
7.001
6.985
6.967
6.948
6.926
6.902
6.875
6.847
6.816
6.782
6.746
6.706
6.664
6.618
6.568
6.515
6.457
6.394
6.326
6.253
6.174
6.088
5.997
5.901
5.8
7.051
7.048
7.044
7.038
7.029
7.019
7.007
6.994
6.978
6.96
6.941
6.919
6.895
6.869
6.84
6.809
6.776
6.74
6.701
6.658
6.613
6.564
6.51
6.453
6.391
6.324
6.252
6.174
6.091
6.002
5.909
5.812
7.04
7.037
7.033
7.026
7.018
7.008
6.997
6.983
6.967
6.95
6.93
6.909
6.885
6.859
6.831
6.8
6.767
6.731
6.692
6.65
6.605
6.557
6.504
6.448
6.387
6.321
6.251
6.175
6.094
6.009
5.919
5.827
6.993
6.99
6.985
6.979
6.97
6.959
6.946
6.931
6.915
6.896
6.874
6.851
6.825
6.797
6.767
6.734
6.698
6.659
6.617
6.572
6.523
6.471
6.414
6.353
6.288
6.217
6.142
6.062
5.976
5.885
5.791
5.694
6.99
6.987
6.982
6.975
6.966
6.956
6.943
6.928
6.911
6.892
6.871
6.848
6.822
6.794
6.764
6.731
6.695
6.656
6.615
6.57
6.521
6.469
6.413
6.352
6.287
6.217
6.142
6.063
5.978
5.889
5.796
5.7
6.983
6.98
6.975
6.968
6.96
6.949
6.936
6.921
6.905
6.886
6.865
6.842
6.816
6.788
6.758
6.725
6.69
6.651
6.61
6.565
6.517
6.465
6.409
6.35
6.285
6.217
6.143
6.065
5.982
5.895
5.804
5.711
6.972
6.969
6.965
6.958
6.949
6.939
6.926
6.911
6.895
6.876
6.855
6.832
6.807
6.779
6.749
6.717
6.682
6.644
6.602
6.558
6.511
6.46
6.405
6.346
6.283
6.215
6.144
6.067
5.987
5.903
5.815
5.727
6.919
6.916
6.911
6.904
6.894
6.883
6.869
6.853
6.835
6.815
6.793
6.768
6.741
6.711
6.679
6.644
6.606
6.565
6.521
6.473
6.423
6.368
6.309
6.247
6.18
6.108
6.032
5.952
5.868
5.78
5.689
5.598
6.916
6.913
6.908
6.9
6.891
6.88
6.866
6.85
6.832
6.812
6.79
6.765
6.738
6.709
6.676
6.641
6.604
6.563
6.519
6.472
6.421
6.367
6.308
6.246
6.179
6.109
6.033
5.954
5.87
5.783
5.694
5.603
6.909
6.906
6.901
6.894
6.885
6.873
6.86
6.844
6.826
6.806
6.784
6.76
6.733
6.703
6.671
6.636
6.599
6.558
6.515
6.468
6.418
6.364
6.306
6.245
6.179
6.109
6.035
5.957
5.875
5.79
5.703
5.615
6.9
6.897
6.891
6.884
6.875
6.864
6.85
6.835
6.817
6.797
6.775
6.751
6.724
6.695
6.663
6.629
6.592
6.552
6.509
6.462
6.413
6.36
6.303
6.242
6.178
6.109
6.037
5.961
5.881
5.799
5.715
5.63
6.841
6.838
6.832
6.824
6.814
6.802
6.788
6.771
6.752
6.731
6.707
6.681
6.653
6.621
6.587
6.55
6.511
6.468
6.422
6.373
6.32
6.264
6.204
6.14
6.072
6
5.924
5.845
5.763
5.678
5.591
5.505
6.838
6.835
6.829
6.821
6.812
6.799
6.785
6.768
6.75
6.728
6.705
6.679
6.65
6.619
6.585
6.548
6.509
6.466
6.42
6.371
6.319
6.263
6.203
6.139
6.072
6.001
5.926
5.847
5.766
5.682
5.596
5.51
6.832
6.829
6.823
6.816
6.806
6.794
6.779
6.763
6.744
6.723
6.7
6.674
6.645
6.614
6.581
6.544
6.505
6.463
6.417
6.369
6.316
6.261
6.202
6.139
6.072
6.002
5.928
5.851
5.771
5.689
5.605
5.521
6.823
6.82
6.814
6.807
6.797
6.785
6.771
6.754
6.736
6.715
6.692
6.666
6.638
6.607
6.574
6.538
6.499
6.457
6.412
6.364
6.313
6.258
6.2
6.138
6.073
6.004
5.932
5.856
5.778
5.698
5.617
5.537
6.76
6.756
6.75
6.742
6.732
6.719
6.704
6.686
6.666
6.644
6.619
6.591
6.561
6.529
6.493
6.455
6.413
6.369
6.322
6.271
6.217
6.159
6.098
6.033
5.965
5.893
5.819
5.741
5.661
5.579
5.496
5.414
6.757
6.754
6.748
6.739
6.729
6.716
6.701
6.683
6.664
6.641
6.617
6.589
6.559
6.527
6.491
6.453
6.412
6.368
6.32
6.27
6.216
6.158
6.098
6.033
5.966
5.894
5.82
5.743
5.664
5.583
5.501
5.42
6.751
6.748
6.742
6.734
6.723
6.711
6.696
6.678
6.659
6.636
6.612
6.585
6.555
6.523
6.487
6.449
6.409
6.365
6.318
6.268
6.214
6.157
6.097
6.034
5.967
5.897
5.823
5.748
5.669
5.59
5.51
5.431
6.743
6.74
6.734
6.726
6.715
6.703
6.688
6.671
6.651
6.629
6.605
6.578
6.548
6.516
6.481
6.444
6.404
6.36
6.314
6.264
6.212
6.156
6.097
6.034
5.968
5.9
5.828
5.754
5.678
5.6
5.522
5.446
6.676
6.672
6.666
6.657
6.646
6.633
6.617
6.598
6.578
6.554
6.528
6.5
6.468
6.434
6.397
6.358
6.315
6.269
6.22
6.168
6.113
6.054
5.993
5.928
5.86
5.788
5.715
5.639
5.561
5.482
5.404
5.326
6.673
6.67
6.663
6.655
6.644
6.63
6.614
6.596
6.575
6.552
6.526
6.498
6.466
6.432
6.396
6.356
6.313
6.268
6.219
6.167
6.112
6.054
5.993
5.928
5.86
5.79
5.717
5.641
5.564
5.486
5.408
5.332
6.668
6.665
6.658
6.65
6.639
6.625
6.61
6.591
6.571
6.548
6.522
6.494
6.463
6.429
6.392
6.353
6.311
6.266
6.217
6.166
6.112
6.054
5.993
5.929
5.862
5.793
5.72
5.646
5.57
5.494
5.417
5.342
6.661
6.657
6.651
6.642
6.631
6.618
6.602
6.584
6.564
6.541
6.516
6.488
6.457
6.423
6.387
6.349
6.307
6.262
6.214
6.164
6.11
6.053
5.993
5.931
5.865
5.797
5.726
5.653
5.579
5.504
5.43
5.357
6.59
6.586
6.58
6.571
6.559
6.545
6.528
6.509
6.488
6.463
6.436
6.406
6.374
6.339
6.3
6.259
6.216
6.169
6.119
6.066
6.01
5.95
5.888
5.823
5.756
5.685
5.613
5.539
5.464
5.388
5.313
5.24
6.588
6.584
6.578
6.568
6.557
6.543
6.526
6.507
6.486
6.461
6.434
6.405
6.372
6.337
6.299
6.258
6.215
6.168
6.118
6.065
6.009
5.951
5.889
5.824
5.757
5.687
5.615
5.542
5.467
5.392
5.318
5.245
6.583
6.579
6.573
6.564
6.552
6.538
6.522
6.503
6.481
6.457
6.431
6.401
6.369
6.334
6.296
6.256
6.212
6.166
6.117
6.064
6.009
5.951
5.89
5.826
5.759
5.69
5.619
5.547
5.473
5.4
5.327
5.255
6.576
6.572
6.566
6.557
6.546
6.532
6.515
6.497
6.475
6.451
6.425
6.396
6.364
6.33
6.292
6.252
6.209
6.163
6.115
6.063
6.009
5.951
5.891
5.828
5.763
5.695
5.626
5.555
5.483
5.411
5.339
5.27
6.504
6.5
6.493
6.483
6.471
6.456
6.439
6.419
6.397
6.371
6.343
6.312
6.279
6.242
6.203
6.161
6.116
6.068
6.017
5.964
5.907
5.847
5.785
5.721
5.653
5.584
5.513
5.441
5.369
5.296
5.224
5.155
6.502
6.497
6.491
6.481
6.469
6.454
6.437
6.417
6.395
6.37
6.342
6.311
6.278
6.241
6.202
6.16
6.115
6.068
6.017
5.964
5.907
5.848
5.786
5.722
5.655
5.586
5.516
5.444
5.372
5.3
5.229
5.16
6.497
6.493
6.486
6.477
6.465
6.45
6.433
6.414
6.391
6.366
6.338
6.308
6.275
6.239
6.2
6.158
6.114
6.067
6.016
5.963
5.907
5.849
5.788
5.724
5.658
5.59
5.52
5.45
5.379
5.308
5.238
5.17
6.491
6.487
6.48
6.471
6.459
6.444
6.427
6.408
6.386
6.361
6.334
6.303
6.271
6.235
6.197
6.156
6.112
6.065
6.015
5.963
5.908
5.85
5.79
5.727
5.662
5.595
5.527
5.458
5.388
5.319
5.25
5.184
6.416
6.412
6.405
6.395
6.382
6.367
6.349
6.329
6.305
6.279
6.25
6.218
6.184
6.146
6.106
6.063
6.017
5.968
5.917
5.862
5.805
5.746
5.684
5.619
5.553
5.485
5.415
5.345
5.275
5.205
5.137
5.071
6.415
6.41
6.403
6.393
6.381
6.365
6.348
6.327
6.304
6.278
6.249
6.217
6.183
6.145
6.105
6.062
6.017
5.968
5.917
5.863
5.806
5.746
5.685
5.621
5.555
5.487
5.418
5.348
5.278
5.209
5.141
5.076
6.411
6.406
6.399
6.389
6.377
6.362
6.344
6.324
6.3
6.275
6.246
6.215
6.18
6.143
6.104
6.061
6.016
5.968
5.917
5.863
5.807
5.748
5.687
5.623
5.558
5.491
5.423
5.354
5.285
5.217
5.15
5.085
6.405
6.4
6.393
6.384
6.371
6.357
6.339
6.319
6.296
6.27
6.242
6.211
6.177
6.14
6.101
6.059
6.014
5.967
5.916
5.863
5.808
5.75
5.69
5.627
5.563
5.497
5.43
5.363
5.295
5.228
5.162
5.099
6.329
6.324
6.317
6.307
6.294
6.278
6.259
6.238
6.214
6.187
6.157
6.124
6.089
6.051
6.01
5.966
5.919
5.869
5.817
5.762
5.705
5.645
5.583
5.519
5.454
5.387
5.319
5.251
5.183
5.116
5.05
4.987
6.327
6.323
6.315
6.305
6.292
6.276
6.258
6.237
6.213
6.186
6.156
6.123
6.088
6.05
6.009
5.965
5.919
5.869
5.817
5.763
5.706
5.646
5.585
5.521
5.456
5.389
5.322
5.254
5.186
5.12
5.055
4.992
6.324
6.319
6.312
6.302
6.289
6.273
6.255
6.234
6.21
6.183
6.154
6.121
6.086
6.048
6.008
5.964
5.918
5.869
5.818
5.764
5.707
5.648
5.587
5.524
5.46
5.394
5.327
5.26
5.193
5.127
5.063
5.001
6.319
6.314
6.307
6.297
6.284
6.269
6.25
6.229
6.206
6.179
6.15
6.118
6.084
6.046
6.006
5.963
5.917
5.869
5.818
5.765
5.709
5.651
5.591
5.529
5.465
5.4
5.335
5.269
5.203
5.139
5.076
5.015
6.242
6.237
6.23
6.219
6.205
6.189
6.17
6.148
6.123
6.095
6.065
6.031
5.995
5.956
5.914
5.869
5.821
5.771
5.719
5.663
5.606
5.546
5.484
5.421
5.356
5.29
5.224
5.158
5.092
5.027
4.964
4.904
6.24
6.236
6.228
6.217
6.204
6.188
6.169
6.147
6.122
6.094
6.064
6.03
5.994
5.955
5.913
5.869
5.821
5.771
5.719
5.664
5.607
5.547
5.486
5.423
5.358
5.293
5.227
5.161
5.095
5.031
4.968
4.909
6.237
6.233
6.225
6.215
6.201
6.185
6.166
6.144
6.12
6.092
6.062
6.029
5.993
5.954
5.913
5.868
5.821
5.772
5.72
5.665
5.608
5.55
5.489
5.426
5.362
5.298
5.232
5.167
5.102
5.039
4.977
4.918
6.233
6.228
6.22
6.21
6.197
6.181
6.162
6.141
6.116
6.089
6.059
6.026
5.991
5.952
5.911
5.868
5.821
5.772
5.721
5.667
5.611
5.553
5.493
5.431
5.369
5.305
5.24
5.176
5.113
5.05
4.99
4.932
6.156
6.151
6.143
6.132
6.118
6.101
6.081
6.059
6.033
6.004
5.973
5.939
5.902
5.861
5.819
5.773
5.725
5.674
5.621
5.566
5.508
5.448
5.387
5.324
5.26
5.195
5.13
5.066
5.002
4.939
4.878
4.821
6.154
6.149
6.141
6.13
6.117
6.1
6.08
6.058
6.032
6.004
5.972
5.938
5.901
5.861
5.819
5.773
5.725
5.675
5.622
5.566
5.509
5.45
5.388
5.326
5.262
5.198
5.133
5.069
5.005
4.943
4.883
4.826
6.151
6.147
6.139
6.128
6.114
6.098
6.078
6.056
6.03
6.002
5.971
5.937
5.9
5.861
5.818
5.773
5.726
5.675
5.623
5.568
5.511
5.452
5.392
5.33
5.267
5.203
5.139
5.075
5.012
4.951
4.891
4.835
6.147
6.142
6.135
6.124
6.11
6.094
6.075
6.052
6.027
5.999
5.969
5.935
5.899
5.859
5.818
5.773
5.726
5.677
5.625
5.571
5.514
5.456
5.396
5.335
5.273
5.21
5.147
5.085
5.023
4.962
4.904
4.848
6.07
6.065
6.057
6.046
6.031
6.014
5.994
5.97
5.944
5.915
5.882
5.847
5.809
5.768
5.725
5.679
5.63
5.578
5.525
5.469
5.411
5.352
5.29
5.228
5.165
5.101
5.037
4.974
4.912
4.851
4.793
4.738
6.069
6.064
6.056
6.044
6.03
6.013
5.993
5.969
5.943
5.914
5.882
5.847
5.809
5.768
5.725
5.679
5.63
5.579
5.526
5.47
5.412
5.353
5.292
5.23
5.167
5.104
5.041
4.978
4.916
4.855
4.797
4.742
6.066
6.061
6.053
6.042
6.028
6.011
5.991
5.968
5.942
5.913
5.881
5.846
5.808
5.768
5.725
5.679
5.631
5.58
5.527
5.472
5.415
5.356
5.296
5.234
5.172
5.109
5.047
4.984
4.923
4.863
4.806
4.752
6.063
6.058
6.05
6.039
6.025
6.008
5.988
5.965
5.939
5.911
5.879
5.845
5.807
5.768
5.725
5.68
5.632
5.582
5.53
5.475
5.419
5.361
5.301
5.241
5.179
5.117
5.055
4.994
4.934
4.875
4.819
4.765
7.285
7.284
7.281
7.277
7.271
7.264
7.256
7.247
7.236
7.223
7.21
7.195
7.179
7.161
7.142
7.122
7.1
7.076
7.051
7.024
6.996
6.966
6.934
6.9
6.863
6.824
6.783
6.738
6.689
6.634
6.574
6.504
7.262
7.26
7.258
7.253
7.248
7.241
7.233
7.223
7.212
7.2
7.187
7.172
7.156
7.138
7.119
7.098
7.076
7.052
7.027
7
6.971
6.94
6.908
6.873
6.835
6.795
6.752
6.706
6.655
6.6
6.539
6.471
7.233
7.232
7.229
7.225
7.22
7.213
7.205
7.195
7.184
7.172
7.159
7.144
7.127
7.11
7.091
7.07
7.048
7.024
6.998
6.971
6.942
6.911
6.877
6.842
6.804
6.763
6.719
6.672
6.621
6.565
6.505
6.44
7.2
7.198
7.196
7.191
7.186
7.179
7.171
7.162
7.151
7.139
7.125
7.111
7.094
7.077
7.058
7.037
7.015
6.991
6.965
6.938
6.908
6.877
6.843
6.807
6.769
6.728
6.684
6.636
6.586
6.531
6.473
6.411
7.161
7.159
7.156
7.152
7.147
7.14
7.132
7.123
7.112
7.1
7.087
7.072
7.056
7.038
7.019
6.999
6.977
6.953
6.927
6.9
6.87
6.839
6.805
6.769
6.731
6.69
6.646
6.599
6.55
6.497
6.441
6.383
7.116
7.114
7.111
7.107
7.102
7.095
7.087
7.078
7.068
7.056
7.043
7.028
7.012
6.995
6.976
6.955
6.933
6.91
6.884
6.857
6.828
6.797
6.763
6.728
6.69
6.649
6.606
6.561
6.513
6.462
6.409
6.355
7.064
7.063
7.06
7.056
7.051
7.045
7.037
7.028
7.017
7.006
6.993
6.978
6.962
6.945
6.927
6.907
6.885
6.861
6.836
6.809
6.781
6.75
6.717
6.683
6.645
6.606
6.564
6.52
6.474
6.426
6.377
6.326
7.007
7.005
7.003
6.999
6.994
6.987
6.98
6.971
6.96
6.949
6.936
6.922
6.907
6.89
6.871
6.852
6.83
6.807
6.783
6.757
6.729
6.699
6.667
6.633
6.597
6.559
6.519
6.478
6.434
6.389
6.343
6.296
6.942
6.941
6.938
6.934
6.929
6.923
6.916
6.907
6.897
6.885
6.873
6.859
6.844
6.827
6.81
6.79
6.77
6.747
6.723
6.698
6.671
6.642
6.611
6.579
6.545
6.509
6.471
6.432
6.391
6.349
6.306
6.264
6.87
6.869
6.866
6.863
6.858
6.851
6.844
6.835
6.826
6.815
6.802
6.789
6.774
6.758
6.741
6.722
6.702
6.68
6.657
6.633
6.607
6.579
6.55
6.519
6.487
6.453
6.418
6.381
6.344
6.306
6.267
6.228
6.79
6.789
6.787
6.783
6.778
6.772
6.765
6.756
6.747
6.736
6.724
6.711
6.696
6.681
6.664
6.646
6.626
6.605
6.583
6.56
6.535
6.509
6.482
6.453
6.423
6.392
6.359
6.326
6.292
6.257
6.223
6.188
6.702
6.701
6.698
6.695
6.69
6.684
6.677
6.668
6.659
6.648
6.637
6.624
6.61
6.595
6.578
6.561
6.542
6.522
6.501
6.479
6.456
6.432
6.406
6.379
6.352
6.323
6.294
6.264
6.234
6.203
6.173
6.143
6.606
6.604
6.602
6.599
6.594
6.588
6.581
6.573
6.563
6.553
6.541
6.529
6.515
6.5
6.484
6.467
6.449
6.43
6.41
6.39
6.368
6.345
6.321
6.297
6.272
6.246
6.22
6.194
6.167
6.141
6.115
6.09
6.507
6.506
6.504
6.5
6.495
6.489
6.482
6.474
6.465
6.454
6.443
6.43
6.417
6.402
6.387
6.37
6.353
6.335
6.316
6.296
6.275
6.254
6.232
6.21
6.188
6.165
6.142
6.119
6.096
6.074
6.052
6.032
6.439
6.438
6.436
6.432
6.427
6.421
6.414
6.406
6.397
6.386
6.375
6.362
6.349
6.334
6.319
6.303
6.286
6.268
6.249
6.23
6.21
6.19
6.169
6.148
6.127
6.106
6.085
6.064
6.044
6.024
6.005
5.987
7.275
7.274
7.271
7.266
7.261
7.254
7.245
7.236
7.225
7.212
7.198
7.183
7.167
7.149
7.129
7.108
7.086
7.062
7.036
7.009
6.979
6.948
6.915
6.879
6.841
6.8
6.756
6.707
6.654
6.595
6.527
6.45
7.252
7.25
7.247
7.243
7.238
7.231
7.222
7.213
7.202
7.189
7.175
7.16
7.144
7.126
7.106
7.085
7.063
7.038
7.012
6.985
6.955
6.923
6.889
6.853
6.814
6.773
6.727
6.678
6.625
6.566
6.5
6.427
7.224
7.222
7.219
7.215
7.209
7.203
7.194
7.185
7.174
7.161
7.148
7.132
7.116
7.098
7.078
7.057
7.035
7.01
6.984
6.956
6.926
6.894
6.86
6.823
6.784
6.742
6.696
6.647
6.594
6.536
6.472
6.404
7.19
7.189
7.186
7.182
7.176
7.169
7.161
7.151
7.141
7.128
7.115
7.1
7.083
7.065
7.046
7.025
7.002
6.978
6.951
6.923
6.893
6.861
6.827
6.79
6.75
6.708
6.663
6.614
6.561
6.505
6.445
6.38
7.151
7.15
7.147
7.143
7.137
7.131
7.122
7.113
7.102
7.09
7.076
7.062
7.045
7.027
7.008
6.987
6.964
6.94
6.914
6.886
6.856
6.824
6.79
6.753
6.714
6.672
6.627
6.579
6.528
6.474
6.416
6.357
7.107
7.105
7.102
7.098
7.093
7.086
7.078
7.069
7.058
7.046
7.033
7.018
7.002
6.984
6.965
6.944
6.922
6.898
6.872
6.844
6.815
6.783
6.749
6.713
6.674
6.633
6.589
6.542
6.493
6.441
6.388
6.332
7.056
7.055
7.052
7.048
7.042
7.036
7.028
7.019
7.008
6.996
6.983
6.969
6.953
6.935
6.916
6.896
6.874
6.85
6.825
6.797
6.768
6.737
6.704
6.668
6.631
6.591
6.548
6.504
6.457
6.408
6.358
6.306
6.999
6.997
6.995
6.991
6.985
6.979
6.971
6.962
6.952
6.94
6.927
6.913
6.897
6.88
6.862
6.842
6.82
6.797
6.772
6.745
6.717
6.687
6.654
6.62
6.584
6.545
6.505
6.462
6.418
6.373
6.326
6.279
6.935
6.933
6.931
6.927
6.922
6.915
6.908
6.899
6.889
6.877
6.864
6.85
6.835
6.818
6.8
6.781
6.76
6.737
6.713
6.687
6.66
6.631
6.6
6.567
6.532
6.496
6.458
6.418
6.377
6.334
6.291
6.248
6.863
6.862
6.859
6.855
6.85
6.844
6.837
6.828
6.818
6.807
6.794
6.781
6.766
6.75
6.732
6.713
6.693
6.671
6.648
6.623
6.597
6.569
6.54
6.509
6.476
6.442
6.406
6.369
6.331
6.293
6.254
6.215
6.784
6.782
6.78
6.776
6.771
6.765
6.758
6.749
6.74
6.729
6.717
6.703
6.689
6.673
6.656
6.638
6.618
6.597
6.575
6.551
6.527
6.5
6.473
6.444
6.413
6.382
6.349
6.315
6.281
6.246
6.211
6.177
6.696
6.695
6.692
6.689
6.684
6.678
6.671
6.662
6.653
6.642
6.63
6.617
6.603
6.588
6.571
6.554
6.535
6.515
6.494
6.472
6.448
6.424
6.398
6.371
6.343
6.314
6.285
6.255
6.224
6.193
6.163
6.133
6.6
6.599
6.597
6.593
6.588
6.582
6.575
6.567
6.558
6.547
6.535
6.523
6.509
6.494
6.478
6.461
6.443
6.424
6.404
6.383
6.361
6.338
6.314
6.29
6.265
6.239
6.213
6.186
6.16
6.133
6.107
6.082
6.502
6.501
6.499
6.495
6.49
6.485
6.477
6.469
6.46
6.45
6.438
6.425
6.412
6.397
6.382
6.365
6.348
6.329
6.31
6.29
6.27
6.249
6.227
6.204
6.182
6.159
6.136
6.113
6.09
6.068
6.046
6.025
6.435
6.434
6.431
6.428
6.423
6.417
6.41
6.402
6.392
6.382
6.37
6.358
6.344
6.33
6.314
6.298
6.281
6.263
6.244
6.225
6.205
6.185
6.164
6.143
6.122
6.101
6.08
6.059
6.039
6.019
6
5.982
7.255
7.253
7.25
7.246
7.24
7.233
7.224
7.214
7.203
7.19
7.176
7.16
7.143
7.124
7.104
7.082
7.058
7.033
7.006
6.977
6.946
6.913
6.877
6.839
6.797
6.752
6.704
6.65
6.59
6.524
6.449
6.364
7.232
7.231
7.228
7.223
7.217
7.21
7.201
7.191
7.18
7.167
7.153
7.137
7.12
7.101
7.081
7.059
7.036
7.01
6.983
6.954
6.923
6.889
6.853
6.815
6.773
6.728
6.679
6.626
6.567
6.503
6.431
6.353
7.204
7.203
7.2
7.195
7.19
7.182
7.174
7.164
7.153
7.14
7.126
7.11
7.093
7.074
7.054
7.032
7.009
6.983
6.956
6.927
6.895
6.862
6.826
6.787
6.745
6.7
6.652
6.599
6.542
6.48
6.412
6.34
7.171
7.17
7.167
7.163
7.157
7.15
7.141
7.131
7.12
7.107
7.093
7.078
7.061
7.042
7.022
7
6.977
6.952
6.924
6.895
6.864
6.83
6.794
6.756
6.714
6.669
6.622
6.57
6.515
6.455
6.392
6.325
7.133
7.132
7.129
7.124
7.119
7.112
7.103
7.093
7.082
7.07
7.056
7.041
7.024
7.005
6.985
6.964
6.94
6.915
6.888
6.859
6.828
6.795
6.759
6.721
6.68
6.636
6.589
6.539
6.486
6.429
6.37
6.308
7.089
7.088
7.085
7.08
7.075
7.068
7.06
7.05
7.039
7.027
7.013
6.998
6.981
6.963
6.943
6.922
6.899
6.874
6.847
6.819
6.788
6.755
6.72
6.683
6.643
6.6
6.554
6.506
6.455
6.402
6.346
6.289
7.039
7.038
7.035
7.031
7.025
7.018
7.01
7.001
6.99
6.978
6.964
6.949
6.933
6.915
6.896
6.875
6.852
6.828
6.801
6.773
6.743
6.711
6.677
6.641
6.602
6.56
6.517
6.471
6.423
6.373
6.321
6.268
6.983
6.981
6.978
6.974
6.969
6.962
6.954
6.945
6.934
6.923
6.909
6.895
6.879
6.861
6.842
6.822
6.799
6.776
6.75
6.723
6.694
6.663
6.63
6.594
6.557
6.518
6.476
6.433
6.388
6.341
6.293
6.245
6.919
6.918
6.915
6.911
6.906
6.899
6.892
6.883
6.872
6.861
6.848
6.833
6.818
6.801
6.782
6.762
6.741
6.718
6.693
6.667
6.639
6.609
6.577
6.543
6.508
6.471
6.432
6.391
6.349
6.306
6.262
6.219
6.849
6.848
6.845
6.841
6.836
6.829
6.822
6.813
6.803
6.791
6.779
6.765
6.75
6.733
6.715
6.696
6.675
6.653
6.629
6.604
6.577
6.549
6.519
6.487
6.454
6.419
6.383
6.345
6.307
6.267
6.228
6.189
6.771
6.769
6.767
6.763
6.758
6.752
6.744
6.735
6.726
6.715
6.702
6.689
6.674
6.658
6.641
6.622
6.602
6.581
6.558
6.534
6.509
6.482
6.454
6.424
6.394
6.362
6.328
6.294
6.259
6.224
6.189
6.154
6.684
6.683
6.68
6.676
6.672
6.665
6.658
6.65
6.64
6.629
6.617
6.604
6.59
6.574
6.557
6.54
6.521
6.5
6.479
6.456
6.432
6.407
6.381
6.354
6.326
6.297
6.267
6.236
6.205
6.174
6.143
6.113
6.59
6.588
6.586
6.582
6.577
6.571
6.564
6.556
6.546
6.536
6.524
6.511
6.497
6.482
6.466
6.449
6.431
6.411
6.391
6.37
6.348
6.324
6.3
6.276
6.25
6.224
6.198
6.171
6.144
6.117
6.091
6.065
6.493
6.492
6.489
6.486
6.481
6.475
6.468
6.46
6.45
6.44
6.428
6.415
6.402
6.387
6.371
6.355
6.337
6.319
6.299
6.279
6.258
6.237
6.215
6.193
6.17
6.147
6.123
6.1
6.077
6.055
6.033
6.012
6.426
6.425
6.423
6.419
6.414
6.408
6.401
6.393
6.383
6.373
6.361
6.349
6.335
6.321
6.305
6.289
6.271
6.253
6.235
6.215
6.195
6.175
6.154
6.133
6.112
6.091
6.069
6.048
6.028
6.008
5.989
5.971
7.225
7.224
7.22
7.216
7.21
7.202
7.193
7.182
7.17
7.157
7.142
7.125
7.107
7.087
7.066
7.043
7.018
6.991
6.962
6.931
6.897
6.861
6.823
6.781
6.735
6.686
6.632
6.573
6.507
6.434
6.353
6.263
7.203
7.201
7.198
7.193
7.187
7.18
7.171
7.16
7.148
7.135
7.12
7.103
7.085
7.066
7.044
7.021
6.996
6.969
6.94
6.909
6.876
6.84
6.801
6.759
6.714
6.665
6.612
6.554
6.49
6.42
6.344
6.262
7.176
7.174
7.171
7.166
7.16
7.153
7.144
7.133
7.122
7.108
7.093
7.077
7.059
7.039
7.018
6.995
6.97
6.943
6.915
6.884
6.85
6.814
6.776
6.734
6.69
6.641
6.589
6.533
6.471
6.405
6.334
6.258
7.144
7.142
7.139
7.134
7.128
7.121
7.112
7.102
7.09
7.077
7.062
7.046
7.028
7.009
6.987
6.965
6.94
6.913
6.885
6.854
6.821
6.785
6.747
6.706
6.662
6.615
6.564
6.509
6.45
6.388
6.321
6.252
7.106
7.105
7.101
7.097
7.091
7.084
7.075
7.065
7.053
7.04
7.026
7.01
6.992
6.973
6.952
6.929
6.905
6.879
6.85
6.82
6.787
6.752
6.715
6.674
6.631
6.585
6.536
6.483
6.427
6.368
6.307
6.243
7.063
7.062
7.058
7.054
7.048
7.041
7.032
7.022
7.011
6.998
6.984
6.968
6.951
6.932
6.911
6.889
6.865
6.839
6.811
6.781
6.749
6.715
6.678
6.639
6.597
6.553
6.505
6.455
6.402
6.347
6.29
6.231
7.014
7.013
7.01
7.005
7
6.992
6.984
6.974
6.963
6.95
6.936
6.921
6.904
6.885
6.865
6.843
6.82
6.795
6.767
6.738
6.707
6.674
6.638
6.6
6.56
6.517
6.472
6.424
6.374
6.323
6.27
6.216
6.959
6.957
6.954
6.95
6.945
6.938
6.929
6.92
6.909
6.897
6.883
6.868
6.851
6.833
6.813
6.792
6.769
6.745
6.718
6.69
6.66
6.628
6.593
6.557
6.518
6.478
6.435
6.39
6.344
6.296
6.247
6.198
6.897
6.896
6.893
6.889
6.883
6.876
6.868
6.859
6.848
6.836
6.823
6.808
6.792
6.774
6.755
6.735
6.712
6.689
6.663
6.636
6.607
6.576
6.544
6.509
6.473
6.434
6.394
6.353
6.31
6.266
6.221
6.177
6.828
6.826
6.824
6.82
6.814
6.808
6.8
6.791
6.78
6.769
6.756
6.741
6.726
6.709
6.69
6.67
6.649
6.626
6.602
6.576
6.548
6.519
6.488
6.456
6.422
6.386
6.349
6.311
6.271
6.231
6.191
6.151
6.751
6.75
6.747
6.743
6.738
6.732
6.724
6.715
6.705
6.694
6.681
6.667
6.652
6.635
6.618
6.599
6.578
6.556
6.533
6.509
6.483
6.455
6.427
6.396
6.365
6.332
6.298
6.263
6.228
6.192
6.156
6.121
6.666
6.665
6.662
6.659
6.654
6.647
6.64
6.631
6.621
6.61
6.598
6.585
6.57
6.554
6.537
6.519
6.499
6.479
6.457
6.434
6.409
6.384
6.357
6.33
6.301
6.271
6.241
6.21
6.178
6.147
6.116
6.085
6.574
6.572
6.57
6.566
6.561
6.555
6.548
6.539
6.53
6.519
6.507
6.494
6.48
6.464
6.448
6.43
6.412
6.392
6.372
6.35
6.328
6.304
6.28
6.255
6.229
6.202
6.175
6.148
6.121
6.094
6.068
6.042
6.479
6.478
6.475
6.472
6.467
6.461
6.453
6.445
6.436
6.425
6.413
6.4
6.386
6.372
6.356
6.339
6.321
6.302
6.283
6.263
6.242
6.22
6.198
6.175
6.152
6.129
6.105
6.082
6.059
6.036
6.014
5.993
6.414
6.412
6.41
6.406
6.401
6.395
6.388
6.38
6.37
6.36
6.348
6.335
6.322
6.307
6.291
6.275
6.257
6.239
6.22
6.201
6.181
6.16
6.139
6.118
6.097
6.075
6.054
6.033
6.012
5.993
5.974
5.956
7.187
7.185
7.181
7.176
7.17
7.162
7.152
7.141
7.128
7.114
7.098
7.08
7.061
7.04
7.017
6.992
6.966
6.937
6.906
6.872
6.836
6.797
6.755
6.709
6.659
6.605
6.547
6.482
6.411
6.333
6.249
6.157
7.165
7.163
7.16
7.155
7.148
7.14
7.131
7.12
7.107
7.093
7.077
7.06
7.04
7.019
6.997
6.972
6.945
6.917
6.886
6.852
6.816
6.778
6.736
6.691
6.642
6.589
6.531
6.469
6.401
6.327
6.248
6.163
7.139
7.137
7.134
7.129
7.122
7.114
7.105
7.094
7.081
7.067
7.052
7.034
7.015
6.994
6.972
6.947
6.921
6.892
6.862
6.829
6.793
6.755
6.713
6.669
6.621
6.569
6.513
6.453
6.388
6.319
6.245
6.168
7.108
7.106
7.102
7.097
7.091
7.083
7.074
7.063
7.051
7.037
7.021
7.004
6.985
6.965
6.943
6.918
6.892
6.864
6.834
6.801
6.766
6.728
6.688
6.644
6.597
6.547
6.493
6.435
6.374
6.308
6.24
6.169
7.071
7.069
7.066
7.061
7.055
7.047
7.038
7.027
7.015
7.002
6.986
6.969
6.951
6.931
6.909
6.885
6.859
6.831
6.801
6.769
6.735
6.698
6.658
6.616
6.57
6.522
6.47
6.415
6.357
6.296
6.232
6.167
7.029
7.028
7.024
7.02
7.013
7.006
6.997
6.986
6.974
6.961
6.946
6.929
6.911
6.891
6.87
6.846
6.821
6.794
6.765
6.733
6.7
6.664
6.625
6.584
6.54
6.494
6.444
6.392
6.337
6.28
6.221
6.162
6.982
6.98
6.977
6.972
6.966
6.959
6.95
6.94
6.928
6.915
6.9
6.884
6.866
6.847
6.826
6.803
6.778
6.752
6.723
6.693
6.66
6.625
6.588
6.549
6.507
6.462
6.415
6.366
6.315
6.262
6.208
6.153
6.928
6.926
6.923
6.919
6.913
6.906
6.897
6.887
6.876
6.863
6.849
6.833
6.815
6.797
6.776
6.754
6.73
6.704
6.677
6.647
6.616
6.583
6.547
6.509
6.469
6.427
6.383
6.337
6.289
6.241
6.191
6.141
6.868
6.866
6.863
6.859
6.853
6.846
6.838
6.828
6.817
6.804
6.791
6.775
6.758
6.74
6.72
6.699
6.676
6.651
6.625
6.597
6.567
6.535
6.501
6.465
6.428
6.388
6.347
6.304
6.26
6.216
6.17
6.125
6.801
6.799
6.796
6.792
6.786
6.779
6.771
6.762
6.751
6.739
6.726
6.711
6.695
6.677
6.658
6.637
6.615
6.592
6.566
6.54
6.511
6.481
6.449
6.416
6.381
6.344
6.306
6.267
6.227
6.186
6.146
6.105
6.726
6.724
6.721
6.717
6.712
6.705
6.698
6.688
6.678
6.666
6.653
6.639
6.623
6.606
6.588
6.568
6.547
6.525
6.501
6.476
6.449
6.421
6.391
6.36
6.328
6.295
6.26
6.225
6.188
6.152
6.116
6.08
6.643
6.642
6.639
6.635
6.63
6.623
6.616
6.607
6.597
6.585
6.573
6.559
6.544
6.528
6.51
6.491
6.472
6.45
6.428
6.404
6.379
6.353
6.326
6.298
6.268
6.238
6.207
6.176
6.144
6.112
6.08
6.049
6.553
6.552
6.549
6.545
6.54
6.534
6.526
6.518
6.508
6.497
6.485
6.471
6.457
6.441
6.424
6.406
6.388
6.368
6.347
6.324
6.301
6.278
6.253
6.227
6.201
6.174
6.147
6.119
6.092
6.064
6.038
6.012
6.46
6.459
6.457
6.453
6.448
6.442
6.434
6.426
6.416
6.406
6.394
6.381
6.367
6.351
6.335
6.318
6.3
6.281
6.261
6.241
6.22
6.198
6.175
6.152
6.129
6.105
6.082
6.058
6.035
6.012
5.99
5.968
6.397
6.395
6.393
6.389
6.384
6.378
6.371
6.362
6.353
6.342
6.33
6.318
6.304
6.289
6.273
6.256
6.239
6.22
6.201
6.182
6.161
6.141
6.12
6.098
6.077
6.055
6.034
6.013
5.992
5.972
5.953
5.935
7.14
7.138
7.134
7.129
7.122
7.113
7.103
7.091
7.078
7.062
7.045
7.026
7.006
6.983
6.959
6.932
6.903
6.872
6.839
6.803
6.764
6.721