/*--------------------------------*- C++ -*----------------------------------*\
  =========                 |
  \\      /  F ield         | OpenFOAM: The Open Source CFD Toolbox
   \\    /   O peration     | Website:  https://openfoam.org
    \\  /    A nd           | Version:  6
     \\/     M anipulation  |
\*---------------------------------------------------------------------------*/
FoamFile
{
    version     2.0;
    format      ascii;
    class       volScalarField;
    location    "20";
    object      Umag;
}
// * * * * * * * * * * * * * * * * * * * * * * * * * * * * * * * * * * * * * //

dimensions      [0 0 0 0 0 0 0];

internalField   nonuniform List<scalar> 
16128
(
8.35e-09
5.341e-08
1.51e-07
3.054e-07
5.192e-07
7.979e-07
1.148e-06
1.58e-06
2.105e-06
2.738e-06
3.5e-06
4.418e-06
5.526e-06
6.87e-06
8.512e-06
1.053e-05
1.305e-05
1.622e-05
2.026e-05
2.551e-05
3.244e-05
4.177e-05
5.465e-05
7.288e-05
9.951e-05
0.0001398
0.0002036
0.0003104
0.0005019
0.0008778
0.001709
0.004807
8.453e-09
5.341e-08
1.506e-07
3.044e-07
5.174e-07
7.949e-07
1.144e-06
1.573e-06
2.095e-06
2.724e-06
3.481e-06
4.391e-06
5.489e-06
6.819e-06
8.442e-06
1.044e-05
1.291e-05
1.603e-05
2e-05
2.514e-05
3.19e-05
4.099e-05
5.348e-05
7.111e-05
9.677e-05
0.0001355
0.0001967
0.0002989
0.0004829
0.000846
0.001659
0.004741
8.607e-09
5.333e-08
1.498e-07
3.025e-07
5.139e-07
7.891e-07
1.135e-06
1.56e-06
2.076e-06
2.697e-06
3.443e-06
4.339e-06
5.417e-06
6.721e-06
8.306e-06
1.025e-05
1.266e-05
1.567e-05
1.949e-05
2.442e-05
3.087e-05
3.949e-05
5.125e-05
6.774e-05
9.154e-05
0.0001272
0.0001831
0.0002762
0.0004441
0.00078
0.001544
0.004544
8.807e-09
5.317e-08
1.487e-07
2.998e-07
5.088e-07
7.806e-07
1.122e-06
1.54e-06
2.048e-06
2.657e-06
3.388e-06
4.263e-06
5.313e-06
6.578e-06
8.11e-06
9.981e-06
1.229e-05
1.516e-05
1.878e-05
2.34e-05
2.942e-05
3.738e-05
4.813e-05
6.302e-05
8.422e-05
0.0001155
0.0001636
0.0002423
0.0003819
0.0006591
0.001305
0.003841
4.884e-08
1.221e-07
2.528e-07
4.582e-07
7.422e-07
1.112e-06
1.578e-06
2.151e-06
2.847e-06
3.688e-06
4.7e-06
5.918e-06
7.389e-06
9.172e-06
1.135e-05
1.403e-05
1.736e-05
2.155e-05
2.69e-05
3.383e-05
4.296e-05
5.523e-05
7.211e-05
9.591e-05
0.0001304
0.0001822
0.0002626
0.0003931
0.0006144
0.00101
0.001751
0.00332
4.897e-08
1.221e-07
2.523e-07
4.569e-07
7.399e-07
1.108e-06
1.571e-06
2.141e-06
2.834e-06
3.669e-06
4.674e-06
5.882e-06
7.339e-06
9.104e-06
1.126e-05
1.39e-05
1.718e-05
2.131e-05
2.655e-05
3.333e-05
4.225e-05
5.42e-05
7.057e-05
9.358e-05
0.0001268
0.0001765
0.0002536
0.0003783
0.0005901
0.0009702
0.001688
0.003229
4.913e-08
1.219e-07
2.512e-07
4.544e-07
7.352e-07
1.101e-06
1.56e-06
2.124e-06
2.808e-06
3.633e-06
4.624e-06
5.813e-06
7.244e-06
8.973e-06
1.108e-05
1.365e-05
1.684e-05
2.083e-05
2.589e-05
3.239e-05
4.089e-05
5.222e-05
6.765e-05
8.916e-05
0.00012
0.0001657
0.000236
0.0003492
0.0005413
0.0008877
0.00155
0.00301
4.934e-08
1.216e-07
2.497e-07
4.507e-07
7.283e-07
1.089e-06
1.542e-06
2.098e-06
2.771e-06
3.581e-06
4.551e-06
5.713e-06
7.106e-06
8.784e-06
1.082e-05
1.33e-05
1.635e-05
2.015e-05
2.494e-05
3.105e-05
3.898e-05
4.945e-05
6.355e-05
8.298e-05
0.0001105
0.0001506
0.0002112
0.0003069
0.0004664
0.0007495
0.001289
0.002474
1.348e-07
2.377e-07
3.73e-07
5.825e-07
8.72e-07
1.249e-06
1.723e-06
2.306e-06
3.015e-06
3.869e-06
4.897e-06
6.133e-06
7.622e-06
9.426e-06
1.162e-05
1.432e-05
1.767e-05
2.187e-05
2.72e-05
3.407e-05
4.308e-05
5.51e-05
7.148e-05
9.428e-05
0.0001268
0.0001746
0.0002465
0.0003582
0.0005362
0.0008264
0.0013
0.002078
1.348e-07
2.376e-07
3.724e-07
5.811e-07
8.695e-07
1.245e-06
1.717e-06
2.297e-06
3.001e-06
3.851e-06
4.871e-06
6.097e-06
7.573e-06
9.358e-06
1.153e-05
1.419e-05
1.749e-05
2.162e-05
2.685e-05
3.359e-05
4.238e-05
5.409e-05
6.999e-05
9.205e-05
0.0001234
0.0001693
0.0002382
0.0003449
0.000515
0.0007928
0.001249
0.002005
1.349e-07
2.373e-07
3.712e-07
5.784e-07
8.646e-07
1.237e-06
1.704e-06
2.279e-06
2.975e-06
3.814e-06
4.82e-06
6.027e-06
7.477e-06
9.226e-06
1.135e-05
1.395e-05
1.715e-05
2.115e-05
2.619e-05
3.265e-05
4.105e-05
5.217e-05
6.716e-05
8.781e-05
0.000117
0.0001592
0.0002222
0.0003192
0.0004731
0.0007246
0.00114
0.001841
1.35e-07
2.368e-07
3.694e-07
5.744e-07
8.574e-07
1.225e-06
1.687e-06
2.253e-06
2.938e-06
3.761e-06
4.747e-06
5.925e-06
7.338e-06
9.036e-06
1.109e-05
1.359e-05
1.666e-05
2.047e-05
2.525e-05
3.133e-05
3.917e-05
4.946e-05
6.319e-05
8.19e-05
0.000108
0.0001452
0.0001998
0.0002824
0.0004111
0.0006179
0.0009558
0.001519
2.668e-07
4.139e-07
5.529e-07
7.627e-07
1.052e-06
1.429e-06
1.902e-06
2.484e-06
3.19e-06
4.04e-06
5.061e-06
6.286e-06
7.759e-06
9.538e-06
1.17e-05
1.434e-05
1.76e-05
2.167e-05
2.681e-05
3.339e-05
4.192e-05
5.318e-05
6.829e-05
8.896e-05
0.0001178
0.0001588
0.0002184
0.0003064
0.000438
0.0006351
0.0009245
0.00133
2.668e-07
4.136e-07
5.521e-07
7.612e-07
1.05e-06
1.425e-06
1.896e-06
2.475e-06
3.176e-06
4.021e-06
5.035e-06
6.25e-06
7.71e-06
9.471e-06
1.161e-05
1.422e-05
1.743e-05
2.144e-05
2.648e-05
3.292e-05
4.127e-05
5.224e-05
6.692e-05
8.695e-05
0.0001148
0.0001543
0.0002114
0.0002956
0.0004213
0.0006097
0.0008872
0.001278
2.667e-07
4.132e-07
5.507e-07
7.583e-07
1.045e-06
1.417e-06
1.883e-06
2.457e-06
3.151e-06
3.985e-06
4.985e-06
6.182e-06
7.616e-06
9.343e-06
1.143e-05
1.398e-05
1.71e-05
2.098e-05
2.585e-05
3.204e-05
4.002e-05
5.045e-05
6.433e-05
8.312e-05
0.0001091
0.0001456
0.000198
0.0002747
0.0003887
0.0005591
0.0008107
0.001168
2.665e-07
4.124e-07
5.487e-07
7.541e-07
1.037e-06
1.405e-06
1.866e-06
2.43e-06
3.113e-06
3.933e-06
4.912e-06
6.082e-06
7.48e-06
9.157e-06
1.118e-05
1.363e-05
1.663e-05
2.033e-05
2.495e-05
3.079e-05
3.825e-05
4.793e-05
6.068e-05
7.777e-05
0.0001011
0.0001335
0.0001793
0.0002453
0.0003417
0.0004836
0.0006902
0.0009804
4.421e-07
6.474e-07
7.911e-07
1.001e-06
1.29e-06
1.665e-06
2.136e-06
2.715e-06
3.415e-06
4.258e-06
5.267e-06
6.475e-06
7.922e-06
9.664e-06
1.177e-05
1.433e-05
1.748e-05
2.138e-05
2.626e-05
3.244e-05
4.038e-05
5.069e-05
6.43e-05
8.253e-05
0.0001073
0.0001415
0.0001891
0.0002561
0.0003504
0.0004817
0.0006588
0.0008818
4.42e-07
6.471e-07
7.903e-07
9.993e-07
1.287e-06
1.661e-06
2.13e-06
2.705e-06
3.402e-06
4.24e-06
5.242e-06
6.44e-06
7.875e-06
9.6e-06
1.168e-05
1.422e-05
1.732e-05
2.116e-05
2.595e-05
3.202e-05
3.978e-05
4.984e-05
6.309e-05
8.077e-05
0.0001047
0.0001376
0.0001834
0.0002476
0.0003378
0.0004634
0.0006328
0.000847
4.417e-07
6.463e-07
7.887e-07
9.963e-07
1.282e-06
1.653e-06
2.118e-06
2.688e-06
3.377e-06
4.204e-06
5.193e-06
6.373e-06
7.784e-06
9.476e-06
1.151e-05
1.399e-05
1.701e-05
2.073e-05
2.536e-05
3.12e-05
3.863e-05
4.822e-05
6.077e-05
7.742e-05
9.983e-05
0.0001304
0.0001726
0.0002314
0.0003135
0.0004274
0.0005809
0.0007758
4.413e-07
6.452e-07
7.863e-07
9.917e-07
1.274e-06
1.641e-06
2.1e-06
2.661e-06
3.34e-06
4.153e-06
5.122e-06
6.276e-06
7.652e-06
9.296e-06
1.127e-05
1.366e-05
1.656e-05
2.011e-05
2.452e-05
3.003e-05
3.7e-05
4.593e-05
5.751e-05
7.273e-05
9.299e-05
0.0001203
0.0001575
0.0002087
0.0002791
0.0003754
0.0005036
0.0006646
6.584e-07
9.354e-07
1.085e-06
1.295e-06
1.582e-06
1.956e-06
2.424e-06
2.998e-06
3.692e-06
4.524e-06
5.519e-06
6.705e-06
8.121e-06
9.818e-06
1.186e-05
1.433e-05
1.734e-05
2.104e-05
2.563e-05
3.137e-05
3.865e-05
4.796e-05
6.001e-05
7.58e-05
9.668e-05
0.0001245
0.000162
0.0002122
0.0002794
0.0003673
0.0004782
0.0006082
6.582e-07
9.349e-07
1.084e-06
1.293e-06
1.58e-06
1.952e-06
2.418e-06
2.989e-06
3.679e-06
4.506e-06
5.494e-06
6.671e-06
8.076e-06
9.757e-06
1.178e-05
1.422e-05
1.719e-05
2.083e-05
2.534e-05
3.098e-05
3.811e-05
4.72e-05
5.895e-05
7.429e-05
9.452e-05
0.0001214
0.0001575
0.0002058
0.0002701
0.0003543
0.0004604
0.0005851
6.577e-07
9.339e-07
1.082e-06
1.29e-06
1.574e-06
1.943e-06
2.405e-06
2.971e-06
3.654e-06
4.472e-06
5.446e-06
6.606e-06
7.988e-06
9.638e-06
1.162e-05
1.4e-05
1.689e-05
2.043e-05
2.48e-05
3.023e-05
3.707e-05
4.576e-05
5.692e-05
7.142e-05
9.042e-05
0.0001155
0.000149
0.0001934
0.0002524
0.0003291
0.0004256
0.0005391
6.569e-07
9.324e-07
1.079e-06
1.285e-06
1.566e-06
1.931e-06
2.387e-06
2.945e-06
3.618e-06
4.421e-06
5.377e-06
6.512e-06
7.86e-06
9.465e-06
1.138e-05
1.369e-05
1.647e-05
1.986e-05
2.402e-05
2.916e-05
3.56e-05
4.372e-05
5.406e-05
6.739e-05
8.468e-05
0.0001073
0.0001371
0.0001763
0.0002275
0.0002935
0.0003755
0.0004711
9.126e-07
1.274e-06
1.43e-06
1.64e-06
1.926e-06
2.297e-06
2.761e-06
3.33e-06
4.015e-06
4.835e-06
5.812e-06
6.973e-06
8.353e-06
9.998e-06
1.197e-05
1.433e-05
1.719e-05
2.068e-05
2.495e-05
3.024e-05
3.684e-05
4.515e-05
5.571e-05
6.921e-05
8.661e-05
0.0001091
0.0001383
0.0001759
0.0002239
0.0002837
0.0003553
0.0004352
9.122e-07
1.273e-06
1.429e-06
1.638e-06
1.923e-06
2.293e-06
2.755e-06
3.321e-06
4.003e-06
4.818e-06
5.788e-06
6.941e-06
8.31e-06
9.94e-06
1.189e-05
1.423e-05
1.705e-05
2.049e-05
2.469e-05
2.989e-05
3.636e-05
4.449e-05
5.479e-05
6.794e-05
8.484e-05
0.0001066
0.0001348
0.0001711
0.0002172
0.0002746
0.0003431
0.0004199
9.115e-07
1.272e-06
1.427e-06
1.634e-06
1.917e-06
2.284e-06
2.743e-06
3.303e-06
3.978e-06
4.784e-06
5.742e-06
6.878e-06
8.226e-06
9.827e-06
1.174e-05
1.402e-05
1.678e-05
2.012e-05
2.419e-05
2.921e-05
3.544e-05
4.323e-05
5.304e-05
6.552e-05
8.145e-05
0.0001019
0.0001282
0.0001618
0.0002043
0.0002569
0.0003197
0.0003898
9.104e-07
1.27e-06
1.424e-06
1.629e-06
1.909e-06
2.272e-06
2.725e-06
3.277e-06
3.942e-06
4.735e-06
5.675e-06
6.788e-06
8.104e-06
9.663e-06
1.152e-05
1.373e-05
1.638e-05
1.959e-05
2.348e-05
2.825e-05
3.412e-05
4.143e-05
5.057e-05
6.21e-05
7.671e-05
9.528e-05
0.0001189
0.0001488
0.0001863
0.0002323
0.0002866
0.0003469
1.201e-06
1.658e-06
1.822e-06
2.031e-06
2.315e-06
2.683e-06
3.143e-06
3.704e-06
4.38e-06
5.186e-06
6.142e-06
7.275e-06
8.615e-06
1.02e-05
1.209e-05
1.434e-05
1.705e-05
2.031e-05
2.426e-05
2.91e-05
3.504e-05
4.24e-05
5.157e-05
6.304e-05
7.746e-05
9.558e-05
0.0001183
0.0001466
0.0001813
0.0002228
0.0002705
0.0003221
1.201e-06
1.657e-06
1.821e-06
2.029e-06
2.312e-06
2.679e-06
3.137e-06
3.696e-06
4.368e-06
5.169e-06
6.119e-06
7.244e-06
8.573e-06
1.015e-05
1.202e-05
1.425e-05
1.692e-05
2.013e-05
2.403e-05
2.878e-05
3.462e-05
4.183e-05
5.079e-05
6.198e-05
7.601e-05
9.36e-05
0.0001156
0.0001429
0.0001764
0.0002163
0.0002621
0.0003117
1.2e-06
1.656e-06
1.818e-06
2.025e-06
2.306e-06
2.67e-06
3.124e-06
3.678e-06
4.344e-06
5.136e-06
6.075e-06
7.184e-06
8.494e-06
1.004e-05
1.188e-05
1.406e-05
1.667e-05
1.98e-05
2.358e-05
2.818e-05
3.381e-05
4.073e-05
4.93e-05
5.996e-05
7.324e-05
8.983e-05
0.0001105
0.000136
0.000167
0.0002039
0.0002462
0.0002918
1.198e-06
1.653e-06
1.815e-06
2.019e-06
2.298e-06
2.658e-06
3.106e-06
3.653e-06
4.309e-06
5.089e-06
6.01e-06
7.097e-06
8.378e-06
9.887e-06
1.167e-05
1.378e-05
1.63e-05
1.931e-05
2.293e-05
2.731e-05
3.265e-05
3.917e-05
4.719e-05
5.709e-05
6.936e-05
8.454e-05
0.0001033
0.0001262
0.000154
0.0001866
0.0002238
0.0002637
1.521e-06
2.084e-06
2.256e-06
2.464e-06
2.745e-06
3.11e-06
3.564e-06
4.117e-06
4.781e-06
5.571e-06
6.504e-06
7.605e-06
8.901e-06
1.043e-05
1.223e-05
1.437e-05
1.691e-05
1.995e-05
2.359e-05
2.798e-05
3.331e-05
3.979e-05
4.772e-05
5.743e-05
6.935e-05
8.394e-05
0.0001017
0.0001232
0.0001486
0.0001781
0.0002109
0.0002456
1.52e-06
2.083e-06
2.254e-06
2.461e-06
2.742e-06
3.105e-06
3.557e-06
4.108e-06
4.769e-06
5.554e-06
6.483e-06
7.576e-06
8.862e-06
1.038e-05
1.217e-05
1.428e-05
1.679e-05
1.979e-05
2.338e-05
2.771e-05
3.294e-05
3.93e-05
4.706e-05
5.656e-05
6.818e-05
8.238e-05
9.964e-05
0.0001204
0.000145
0.0001734
0.0002051
0.0002385
1.519e-06
2.081e-06
2.251e-06
2.457e-06
2.736e-06
3.096e-06
3.545e-06
4.091e-06
4.746e-06
5.523e-06
6.44e-06
7.519e-06
8.787e-06
1.028e-05
1.203e-05
1.411e-05
1.656e-05
1.948e-05
2.298e-05
2.717e-05
3.223e-05
3.836e-05
4.58e-05
5.487e-05
6.593e-05
7.938e-05
9.566e-05
0.0001152
0.0001382
0.0001646
0.000194
0.000225
1.517e-06
2.078e-06
2.247e-06
2.451e-06
2.727e-06
3.084e-06
3.527e-06
4.066e-06
4.712e-06
5.477e-06
6.378e-06
7.437e-06
8.678e-06
1.013e-05
1.184e-05
1.385e-05
1.623e-05
1.905e-05
2.24e-05
2.64e-05
3.121e-05
3.701e-05
4.401e-05
5.249e-05
6.276e-05
7.517e-05
9.009e-05
0.0001078
0.0001286
0.0001524
0.0001786
0.0002062
1.867e-06
2.544e-06
2.725e-06
2.932e-06
3.211e-06
3.57e-06
4.018e-06
4.562e-06
5.213e-06
5.984e-06
6.893e-06
7.96e-06
9.209e-06
1.067e-05
1.239e-05
1.441e-05
1.679e-05
1.961e-05
2.295e-05
2.692e-05
3.168e-05
3.737e-05
4.421e-05
5.243e-05
6.23e-05
7.409e-05
8.81e-05
0.0001045
0.0001235
0.0001449
0.0001681
0.0001923
1.866e-06
2.543e-06
2.724e-06
2.93e-06
3.207e-06
3.566e-06
4.011e-06
4.553e-06
5.201e-06
5.969e-06
6.872e-06
7.932e-06
9.173e-06
1.063e-05
1.233e-05
1.433e-05
1.668e-05
1.946e-05
2.276e-05
2.668e-05
3.136e-05
3.695e-05
4.366e-05
5.171e-05
6.135e-05
7.285e-05
8.649e-05
0.0001025
0.0001209
0.0001416
0.000164
0.0001874
1.864e-06
2.541e-06
2.72e-06
2.925e-06
3.201e-06
3.557e-06
3.999e-06
4.536e-06
5.178e-06
5.938e-06
6.832e-06
7.878e-06
9.102e-06
1.053e-05
1.221e-05
1.417e-05
1.647e-05
1.919e-05
2.24e-05
2.621e-05
3.074e-05
3.615e-05
4.26e-05
5.032e-05
5.953e-05
7.048e-05
8.341e-05
9.85e-05
0.0001158
0.0001352
0.0001563
0.0001781
1.862e-06
2.537e-06
2.716e-06
2.919e-06
3.192e-06
3.544e-06
3.981e-06
4.512e-06
5.145e-06
5.894e-06
6.773e-06
7.801e-06
9e-06
1.04e-05
1.203e-05
1.394e-05
1.617e-05
1.879e-05
2.188e-05
2.553e-05
2.986e-05
3.499e-05
4.109e-05
4.835e-05
5.696e-05
6.713e-05
7.907e-05
9.293e-05
0.0001087
0.0001264
0.0001454
0.0001651
2.235e-06
3.035e-06
3.225e-06
3.43e-06
3.705e-06
4.059e-06
4.499e-06
5.032e-06
5.669e-06
6.421e-06
7.303e-06
8.334e-06
9.535e-06
1.093e-05
1.256e-05
1.447e-05
1.669e-05
1.929e-05
2.234e-05
2.594e-05
3.017e-05
3.517e-05
4.108e-05
4.804e-05
5.623e-05
6.582e-05
7.696e-05
8.972e-05
0.0001041
0.00012
0.0001369
0.0001542
2.234e-06
3.034e-06
3.224e-06
3.428e-06
3.702e-06
4.055e-06
4.493e-06
5.024e-06
5.658e-06
6.406e-06
7.283e-06
8.308e-06
9.501e-06
1.089e-05
1.251e-05
1.439e-05
1.659e-05
1.916e-05
2.218e-05
2.573e-05
2.99e-05
3.482e-05
4.062e-05
4.745e-05
5.547e-05
6.484e-05
7.57e-05
8.814e-05
0.0001021
0.0001175
0.0001339
0.0001508
2.233e-06
3.031e-06
3.22e-06
3.423e-06
3.696e-06
4.046e-06
4.481e-06
5.008e-06
5.636e-06
6.377e-06
7.245e-06
8.257e-06
9.435e-06
1.08e-05
1.239e-05
1.425e-05
1.64e-05
1.892e-05
2.186e-05
2.532e-05
2.937e-05
3.413e-05
3.973e-05
4.63e-05
5.4e-05
6.296e-05
7.331e-05
8.512e-05
9.837e-05
0.0001129
0.0001284
0.0001442
2.23e-06
3.027e-06
3.215e-06
3.416e-06
3.686e-06
4.033e-06
4.463e-06
4.984e-06
5.604e-06
6.335e-06
7.189e-06
8.184e-06
9.339e-06
1.068e-05
1.223e-05
1.403e-05
1.613e-05
1.857e-05
2.141e-05
2.472e-05
2.86e-05
3.315e-05
3.846e-05
4.467e-05
5.191e-05
6.029e-05
6.993e-05
8.086e-05
9.307e-05
0.0001064
0.0001205
0.000135
2.622e-06
3.551e-06
3.75e-06
3.953e-06
4.224e-06
4.571e-06
5.003e-06
5.524e-06
6.145e-06
6.875e-06
7.729e-06
8.722e-06
9.873e-06
1.121e-05
1.275e-05
1.454e-05
1.661e-05
1.901e-05
2.179e-05
2.504e-05
2.881e-05
3.32e-05
3.83e-05
4.422e-05
5.106e-05
5.891e-05
6.784e-05
7.788e-05
8.898e-05
0.000101
0.0001136
0.0001264
2.621e-06
3.549e-06
3.748e-06
3.951e-06
4.22e-06
4.567e-06
4.996e-06
5.516e-06
6.134e-06
6.861e-06
7.71e-06
8.698e-06
9.842e-06
1.117e-05
1.27e-05
1.447e-05
1.652e-05
1.889e-05
2.165e-05
2.485e-05
2.857e-05
3.289e-05
3.791e-05
4.373e-05
5.044e-05
5.813e-05
6.687e-05
7.667e-05
8.749e-05
9.918e-05
0.0001115
0.0001239
2.619e-06
3.546e-06
3.744e-06
3.946e-06
4.214e-06
4.558e-06
4.985e-06
5.5e-06
6.113e-06
6.833e-06
7.674e-06
8.651e-06
9.781e-06
1.109e-05
1.259e-05
1.434e-05
1.635e-05
1.868e-05
2.137e-05
2.449e-05
2.812e-05
3.231e-05
3.717e-05
4.279e-05
4.925e-05
5.663e-05
6.5e-05
7.436e-05
8.466e-05
9.576e-05
0.0001074
0.0001192
2.616e-06
3.542e-06
3.739e-06
3.938e-06
4.204e-06
4.545e-06
4.967e-06
5.477e-06
6.082e-06
6.793e-06
7.622e-06
8.582e-06
9.692e-06
1.097e-05
1.245e-05
1.415e-05
1.61e-05
1.836e-05
2.097e-05
2.398e-05
2.746e-05
3.148e-05
3.611e-05
4.144e-05
4.755e-05
5.45e-05
6.234e-05
7.108e-05
8.065e-05
9.093e-05
0.0001017
0.0001126
3.023e-06
4.085e-06
4.294e-06
4.495e-06
4.76e-06
5.101e-06
5.522e-06
6.031e-06
6.634e-06
7.342e-06
8.166e-06
9.12e-06
1.022e-05
1.149e-05
1.295e-05
1.462e-05
1.654e-05
1.876e-05
2.13e-05
2.422e-05
2.758e-05
3.144e-05
3.586e-05
4.091e-05
4.665e-05
5.313e-05
6.038e-05
6.838e-05
7.707e-05
8.632e-05
9.593e-05
0.0001056
3.022e-06
4.083e-06
4.292e-06
4.492e-06
4.757e-06
5.096e-06
5.516e-06
6.023e-06
6.624e-06
7.329e-06
8.149e-06
9.098e-06
1.019e-05
1.145e-05
1.29e-05
1.456e-05
1.647e-05
1.866e-05
2.117e-05
2.406e-05
2.738e-05
3.119e-05
3.554e-05
4.051e-05
4.615e-05
5.251e-05
5.961e-05
6.745e-05
7.594e-05
8.498e-05
9.436e-05
0.0001038
3.02e-06
4.08e-06
4.288e-06
4.487e-06
4.75e-06
5.087e-06
5.505e-06
6.008e-06
6.604e-06
7.303e-06
8.115e-06
9.054e-06
1.014e-05
1.138e-05
1.28e-05
1.444e-05
1.631e-05
1.846e-05
2.093e-05
2.375e-05
2.699e-05
3.069e-05
3.492e-05
3.974e-05
4.519e-05
5.132e-05
5.814e-05
6.566e-05
7.379e-05
8.242e-05
9.136e-05
0.0001003
3.016e-06
4.075e-06
4.282e-06
4.479e-06
4.74e-06
5.075e-06
5.488e-06
5.985e-06
6.575e-06
7.265e-06
8.066e-06
8.99e-06
1.005e-05
1.127e-05
1.267e-05
1.427e-05
1.61e-05
1.819e-05
2.058e-05
2.331e-05
2.643e-05
2.998e-05
3.403e-05
3.863e-05
4.381e-05
4.961e-05
5.605e-05
6.311e-05
7.073e-05
7.879e-05
8.711e-05
9.547e-05
3.434e-06
4.633e-06
4.852e-06
5.049e-06
5.309e-06
5.642e-06
6.053e-06
6.547e-06
7.132e-06
7.817e-06
8.61e-06
9.525e-06
1.057e-05
1.178e-05
1.315e-05
1.472e-05
1.65e-05
1.854e-05
2.086e-05
2.349e-05
2.649e-05
2.989e-05
3.373e-05
3.806e-05
4.292e-05
4.831e-05
5.425e-05
6.07e-05
6.762e-05
7.488e-05
8.234e-05
8.98e-05
3.433e-06
4.631e-06
4.849e-06
5.046e-06
5.306e-06
5.637e-06
6.047e-06
6.54e-06
7.123e-06
7.804e-06
8.594e-06
9.504e-06
1.055e-05
1.174e-05
1.311e-05
1.466e-05
1.643e-05
1.845e-05
2.075e-05
2.336e-05
2.632e-05
2.968e-05
3.347e-05
3.773e-05
4.251e-05
4.781e-05
5.364e-05
5.998e-05
6.675e-05
7.387e-05
8.117e-05
8.846e-05
3.431e-06
4.628e-06
4.845e-06
5.041e-06
5.299e-06
5.629e-06
6.036e-06
6.525e-06
7.104e-06
7.78e-06
8.562e-06
9.464e-06
1.05e-05
1.168e-05
1.302e-05
1.456e-05
1.63e-05
1.828e-05
2.053e-05
2.309e-05
2.599e-05
2.926e-05
3.295e-05
3.71e-05
4.173e-05
4.685e-05
5.248e-05
5.858e-05
6.51e-05
7.192e-05
7.892e-05
8.59e-05
3.427e-06
4.622e-06
4.839e-06
5.034e-06
5.289e-06
5.616e-06
6.019e-06
6.504e-06
7.076e-06
7.744e-06
8.516e-06
9.405e-06
1.042e-05
1.158e-05
1.29e-05
1.44e-05
1.611e-05
1.804e-05
2.023e-05
2.27e-05
2.55e-05
2.866e-05
3.221e-05
3.618e-05
4.06e-05
4.548e-05
5.082e-05
5.659e-05
6.274e-05
6.916e-05
7.572e-05
8.226e-05
3.852e-06
5.189e-06
5.417e-06
5.612e-06
5.865e-06
6.189e-06
6.589e-06
7.069e-06
7.635e-06
8.294e-06
9.057e-06
9.932e-06
1.093e-05
1.207e-05
1.336e-05
1.482e-05
1.648e-05
1.835e-05
2.047e-05
2.285e-05
2.553e-05
2.853e-05
3.189e-05
3.562e-05
3.974e-05
4.427e-05
4.919e-05
5.446e-05
6.004e-05
6.583e-05
7.173e-05
7.758e-05
3.85e-06
5.187e-06
5.415e-06
5.609e-06
5.862e-06
6.185e-06
6.583e-06
7.061e-06
7.625e-06
8.283e-06
9.042e-06
9.912e-06
1.091e-05
1.204e-05
1.332e-05
1.478e-05
1.642e-05
1.828e-05
2.037e-05
2.273e-05
2.538e-05
2.835e-05
3.166e-05
3.535e-05
3.941e-05
4.387e-05
4.871e-05
5.389e-05
5.937e-05
6.506e-05
7.084e-05
7.658e-05
3.848e-06
5.184e-06
5.411e-06
5.604e-06
5.855e-06
6.177e-06
6.572e-06
7.047e-06
7.608e-06
8.26e-06
9.012e-06
9.875e-06
1.086e-05
1.198e-05
1.325e-05
1.468e-05
1.63e-05
1.813e-05
2.019e-05
2.25e-05
2.51e-05
2.8e-05
3.123e-05
3.482e-05
3.878e-05
4.31e-05
4.779e-05
5.28e-05
5.809e-05
6.357e-05
6.913e-05
7.465e-05
3.844e-06
5.178e-06
5.404e-06
5.596e-06
5.846e-06
6.164e-06
6.557e-06
7.027e-06
7.581e-06
8.226e-06
8.97e-06
9.821e-06
1.079e-05
1.189e-05
1.314e-05
1.454e-05
1.613e-05
1.792e-05
1.992e-05
2.217e-05
2.469e-05
2.749e-05
3.061e-05
3.406e-05
3.786e-05
4.199e-05
4.646e-05
5.123e-05
5.625e-05
6.144e-05
6.67e-05
7.191e-05
4.272e-06
5.749e-06
5.987e-06
6.177e-06
6.424e-06
6.739e-06
7.126e-06
7.59e-06
8.137e-06
8.771e-06
9.502e-06
1.034e-05
1.129e-05
1.236e-05
1.358e-05
1.494e-05
1.648e-05
1.82e-05
2.013e-05
2.228e-05
2.468e-05
2.734e-05
3.028e-05
3.352e-05
3.705e-05
4.088e-05
4.499e-05
4.935e-05
5.391e-05
5.86e-05
6.334e-05
6.8e-05
4.27e-06
5.747e-06
5.984e-06
6.174e-06
6.421e-06
6.735e-06
7.121e-06
7.584e-06
8.128e-06
8.76e-06
9.488e-06
1.032e-05
1.126e-05
1.233e-05
1.354e-05
1.49e-05
1.643e-05
1.814e-05
2.005e-05
2.218e-05
2.456e-05
2.719e-05
3.01e-05
3.329e-05
3.678e-05
4.056e-05
4.461e-05
4.89e-05
5.339e-05
5.8e-05
6.265e-05
6.724e-05
4.268e-06
5.743e-06
5.98e-06
6.169e-06
6.414e-06
6.727e-06
7.111e-06
7.57e-06
8.111e-06
8.739e-06
9.461e-06
1.029e-05
1.122e-05
1.228e-05
1.347e-05
1.482e-05
1.632e-05
1.801e-05
1.989e-05
2.199e-05
2.432e-05
2.69e-05
2.974e-05
3.286e-05
3.626e-05
3.994e-05
4.387e-05
4.804e-05
5.239e-05
5.685e-05
6.135e-05
6.577e-05
4.264e-06
5.737e-06
5.973e-06
6.161e-06
6.405e-06
6.715e-06
7.095e-06
7.551e-06
8.087e-06
8.708e-06
9.421e-06
1.024e-05
1.116e-05
1.22e-05
1.338e-05
1.469e-05
1.617e-05
1.782e-05
1.966e-05
2.17e-05
2.397e-05
2.647e-05
2.922e-05
3.223e-05
3.551e-05
3.904e-05
4.282e-05
4.68e-05
5.095e-05
5.52e-05
5.947e-05
6.368e-05
4.691e-06
6.308e-06
6.555e-06
6.741e-06
6.981e-06
7.286e-06
7.661e-06
8.109e-06
8.635e-06
9.244e-06
9.942e-06
1.074e-05
1.164e-05
1.265e-05
1.379e-05
1.507e-05
1.649e-05
1.808e-05
1.984e-05
2.179e-05
2.394e-05
2.631e-05
2.89e-05
3.171e-05
3.476e-05
3.803e-05
4.15e-05
4.514e-05
4.892e-05
5.276e-05
5.662e-05
6.04e-05
4.69e-06
6.306e-06
6.552e-06
6.738e-06
6.978e-06
7.282e-06
7.656e-06
8.102e-06
8.626e-06
9.233e-06
9.93e-06
1.072e-05
1.162e-05
1.263e-05
1.376e-05
1.503e-05
1.645e-05
1.802e-05
1.977e-05
2.17e-05
2.384e-05
2.618e-05
2.874e-05
3.153e-05
3.454e-05
3.777e-05
4.119e-05
4.479e-05
4.851e-05
5.23e-05
5.609e-05
5.981e-05
4.687e-06
6.302e-06
6.548e-06
6.733e-06
6.971e-06
7.274e-06
7.646e-06
8.09e-06
8.611e-06
9.214e-06
9.905e-06
1.069e-05
1.158e-05
1.258e-05
1.37e-05
1.496e-05
1.635e-05
1.791e-05
1.963e-05
2.153e-05
2.363e-05
2.593e-05
2.844e-05
3.117e-05
3.412e-05
3.726e-05
4.06e-05
4.41e-05
4.772e-05
5.14e-05
5.508e-05
5.869e-05
4.683e-06
6.296e-06
6.541e-06
6.725e-06
6.962e-06
7.262e-06
7.631e-06
8.071e-06
8.588e-06
9.185e-06
9.868e-06
1.065e-05
1.152e-05
1.251e-05
1.361e-05
1.485e-05
1.622e-05
1.774e-05
1.943e-05
2.129e-05
2.333e-05
2.557e-05
2.801e-05
3.065e-05
3.35e-05
3.654e-05
3.975e-05
4.311e-05
4.658e-05
5.011e-05
5.362e-05
5.707e-05
5.106e-06
6.861e-06
7.117e-06
7.3e-06
7.532e-06
7.827e-06
8.188e-06
8.62e-06
9.125e-06
9.708e-06
1.038e-05
1.113e-05
1.198e-05
1.294e-05
1.401e-05
1.52e-05
1.652e-05
1.798e-05
1.959e-05
2.136e-05
2.33e-05
2.541e-05
2.77e-05
3.017e-05
3.281e-05
3.562e-05
3.858e-05
4.165e-05
4.481e-05
4.801e-05
5.119e-05
5.429e-05
5.105e-06
6.859e-06
7.115e-06
7.297e-06
7.529e-06
7.823e-06
8.183e-06
8.614e-06
9.117e-06
9.699e-06
1.036e-05
1.112e-05
1.197e-05
1.292e-05
1.398e-05
1.517e-05
1.648e-05
1.793e-05
1.953e-05
2.129e-05
2.321e-05
2.53e-05
2.757e-05
3.001e-05
3.263e-05
3.541e-05
3.833e-05
4.137e-05
4.449e-05
4.764e-05
5.078e-05
5.384e-05
5.102e-06
6.855e-06
7.11e-06
7.292e-06
7.522e-06
7.815e-06
8.174e-06
8.602e-06
9.102e-06
9.68e-06
1.034e-05
1.109e-05
1.193e-05
1.288e-05
1.393e-05
1.51e-05
1.64e-05
1.783e-05
1.941e-05
2.114e-05
2.303e-05
2.509e-05
2.732e-05
2.972e-05
3.228e-05
3.5e-05
3.785e-05
4.082e-05
4.386e-05
4.693e-05
4.999e-05
5.296e-05
5.098e-06
6.849e-06
7.104e-06
7.284e-06
7.513e-06
7.804e-06
8.16e-06
8.584e-06
9.081e-06
9.654e-06
1.031e-05
1.105e-05
1.188e-05
1.281e-05
1.385e-05
1.501e-05
1.628e-05
1.769e-05
1.924e-05
2.093e-05
2.278e-05
2.479e-05
2.696e-05
2.929e-05
3.178e-05
3.441e-05
3.717e-05
4.003e-05
4.296e-05
4.591e-05
4.885e-05
5.17e-05
5.515e-06
7.406e-06
7.671e-06
7.848e-06
8.073e-06
8.357e-06
8.705e-06
9.12e-06
9.604e-06
1.016e-05
1.08e-05
1.152e-05
1.232e-05
1.322e-05
1.423e-05
1.534e-05
1.656e-05
1.791e-05
1.938e-05
2.099e-05
2.274e-05
2.463e-05
2.666e-05
2.884e-05
3.115e-05
3.358e-05
3.612e-05
3.874e-05
4.141e-05
4.41e-05
4.675e-05
4.933e-05
5.514e-06
7.404e-06
7.668e-06
7.846e-06
8.07e-06
8.354e-06
8.701e-06
9.114e-06
9.597e-06
1.015e-05
1.079e-05
1.15e-05
1.231e-05
1.32e-05
1.42e-05
1.531e-05
1.652e-05
1.786e-05
1.933e-05
2.093e-05
2.266e-05
2.454e-05
2.655e-05
2.871e-05
3.1e-05
3.341e-05
3.592e-05
3.851e-05
4.115e-05
4.381e-05
4.643e-05
4.898e-05
5.511e-06
7.4e-06
7.664e-06
7.841e-06
8.064e-06
8.346e-06
8.692e-06
9.103e-06
9.583e-06
1.014e-05
1.077e-05
1.148e-05
1.228e-05
1.317e-05
1.416e-05
1.525e-05
1.645e-05
1.778e-05
1.923e-05
2.08e-05
2.251e-05
2.436e-05
2.634e-05
2.846e-05
3.071e-05
3.307e-05
3.553e-05
3.807e-05
4.065e-05
4.325e-05
4.581e-05
4.829e-05
5.507e-06
7.394e-06
7.657e-06
7.833e-06
8.055e-06
8.336e-06
8.679e-06
9.087e-06
9.564e-06
1.011e-05
1.074e-05
1.144e-05
1.223e-05
1.311e-05
1.409e-05
1.517e-05
1.635e-05
1.765e-05
1.908e-05
2.062e-05
2.23e-05
2.411e-05
2.604e-05
2.811e-05
3.029e-05
3.259e-05
3.498e-05
3.744e-05
3.993e-05
4.244e-05
4.491e-05
4.73e-05
5.915e-06
7.938e-06
8.211e-06
8.385e-06
8.601e-06
8.875e-06
9.209e-06
9.607e-06
1.007e-05
1.06e-05
1.121e-05
1.189e-05
1.265e-05
1.35e-05
1.444e-05
1.547e-05
1.661e-05
1.785e-05
1.92e-05
2.067e-05
2.225e-05
2.395e-05
2.576e-05
2.769e-05
2.972e-05
3.184e-05
3.404e-05
3.629e-05
3.858e-05
4.086e-05
4.31e-05
4.527e-05
5.913e-06
7.936e-06
8.209e-06
8.382e-06
8.598e-06
8.871e-06
9.205e-06
9.601e-06
1.006e-05
1.059e-05
1.12e-05
1.188e-05
1.264e-05
1.348e-05
1.442e-05
1.545e-05
1.658e-05
1.781e-05
1.916e-05
2.061e-05
2.219e-05
2.387e-05
2.567e-05
2.758e-05
2.96e-05
3.17e-05
3.388e-05
3.611e-05
3.837e-05
4.063e-05
4.285e-05
4.499e-05
5.91e-06
7.932e-06
8.205e-06
8.377e-06
8.592e-06
8.864e-06
9.196e-06
9.591e-06
1.005e-05
1.058e-05
1.118e-05
1.185e-05
1.261e-05
1.345e-05
1.438e-05
1.54e-05
1.652e-05
1.774e-05
1.907e-05
2.051e-05
2.206e-05
2.373e-05
2.55e-05
2.738e-05
2.936e-05
3.143e-05
3.357e-05
3.576e-05
3.797e-05
4.018e-05
4.235e-05
4.445e-05
5.906e-06
7.927e-06
8.198e-06
8.37e-06
8.584e-06
8.854e-06
9.184e-06
9.576e-06
1.003e-05
1.056e-05
1.115e-05
1.182e-05
1.257e-05
1.34e-05
1.432e-05
1.532e-05
1.643e-05
1.763e-05
1.894e-05
2.036e-05
2.188e-05
2.351e-05
2.525e-05
2.709e-05
2.902e-05
3.103e-05
3.312e-05
3.524e-05
3.739e-05
3.954e-05
4.164e-05
4.367e-05
9.027e-09
5.292e-08
1.472e-07
2.962e-07
5.022e-07
7.697e-07
1.105e-06
1.515e-06
2.012e-06
2.607e-06
3.318e-06
4.167e-06
5.18e-06
6.396e-06
7.862e-06
9.641e-06
1.182e-05
1.451e-05
1.788e-05
2.215e-05
2.763e-05
3.48e-05
4.436e-05
5.735e-05
7.548e-05
0.0001015
0.0001402
0.0002004
0.0002991
0.0004732
0.0008038
0.001566
9.235e-09
5.255e-08
1.454e-07
2.919e-07
4.942e-07
7.566e-07
1.085e-06
1.486e-06
1.969e-06
2.547e-06
3.235e-06
4.053e-06
5.025e-06
6.184e-06
7.573e-06
9.247e-06
1.128e-05
1.377e-05
1.686e-05
2.072e-05
2.562e-05
3.194e-05
4.021e-05
5.123e-05
6.621e-05
8.705e-05
0.0001168
0.0001605
0.0002268
0.0003311
0.0004996
0.000778
9.401e-09
5.204e-08
1.432e-07
2.87e-07
4.852e-07
7.419e-07
1.062e-06
1.453e-06
1.922e-06
2.481e-06
3.143e-06
3.926e-06
4.851e-06
5.948e-06
7.253e-06
8.813e-06
1.069e-05
1.297e-05
1.575e-05
1.919e-05
2.35e-05
2.895e-05
3.594e-05
4.505e-05
5.71e-05
7.331e-05
9.547e-05
0.0001263
0.0001699
0.0002321
0.000321
0.0004447
9.498e-09
5.139e-08
1.407e-07
2.815e-07
4.753e-07
7.258e-07
1.038e-06
1.417e-06
1.87e-06
2.409e-06
3.043e-06
3.79e-06
4.667e-06
5.698e-06
6.915e-06
8.356e-06
1.007e-05
1.213e-05
1.461e-05
1.764e-05
2.136e-05
2.598e-05
3.178e-05
3.916e-05
4.864e-05
6.096e-05
7.712e-05
9.851e-05
0.0001269
0.0001645
0.0002131
0.0002733
9.508e-09
5.059e-08
1.381e-07
2.757e-07
4.649e-07
7.09e-07
1.012e-06
1.379e-06
1.817e-06
2.334e-06
2.941e-06
3.649e-06
4.476e-06
5.441e-06
6.569e-06
7.892e-06
9.448e-06
1.129e-05
1.348e-05
1.611e-05
1.928e-05
2.314e-05
2.788e-05
3.375e-05
4.107e-05
5.027e-05
6.188e-05
7.655e-05
9.503e-05
0.000118
0.0001457
0.0001773
9.42e-09
4.965e-08
1.352e-07
2.697e-07
4.543e-07
6.918e-07
9.859e-07
1.341e-06
1.763e-06
2.259e-06
2.837e-06
3.509e-06
4.286e-06
5.186e-06
6.228e-06
7.435e-06
8.838e-06
1.048e-05
1.239e-05
1.465e-05
1.733e-05
2.051e-05
2.433e-05
2.892e-05
3.449e-05
4.125e-05
4.948e-05
5.945e-05
7.143e-05
8.557e-05
0.0001017
0.0001193
9.239e-09
4.86e-08
1.323e-07
2.637e-07
4.437e-07
6.748e-07
9.602e-07
1.304e-06
1.71e-06
2.185e-06
2.737e-06
3.372e-06
4.103e-06
4.94e-06
5.9e-06
6.999e-06
8.26e-06
9.709e-06
1.138e-05
1.331e-05
1.554e-05
1.814e-05
2.117e-05
2.473e-05
2.89e-05
3.38e-05
3.954e-05
4.623e-05
5.393e-05
6.263e-05
7.214e-05
8.206e-05
8.977e-09
4.75e-08
1.294e-07
2.578e-07
4.335e-07
6.586e-07
9.357e-07
1.268e-06
1.66e-06
2.116e-06
2.641e-06
3.243e-06
3.93e-06
4.71e-06
5.594e-06
6.594e-06
7.726e-06
9.006e-06
1.045e-05
1.209e-05
1.395e-05
1.606e-05
1.845e-05
2.116e-05
2.424e-05
2.773e-05
3.167e-05
3.607e-05
4.092e-05
4.617e-05
5.168e-05
5.722e-05
8.659e-09
4.638e-08
1.266e-07
2.524e-07
4.24e-07
6.435e-07
9.129e-07
1.235e-06
1.613e-06
2.051e-06
2.554e-06
3.125e-06
3.772e-06
4.5e-06
5.317e-06
6.23e-06
7.249e-06
8.382e-06
9.64e-06
1.103e-05
1.257e-05
1.427e-05
1.615e-05
1.82e-05
2.044e-05
2.287e-05
2.55e-05
2.83e-05
3.124e-05
3.426e-05
3.727e-05
4.017e-05
8.314e-09
4.531e-08
1.241e-07
2.474e-07
4.154e-07
6.299e-07
8.925e-07
1.206e-06
1.572e-06
1.994e-06
2.476e-06
3.021e-06
3.633e-06
4.316e-06
5.075e-06
5.913e-06
6.834e-06
7.843e-06
8.942e-06
1.013e-05
1.142e-05
1.279e-05
1.425e-05
1.579e-05
1.74e-05
1.905e-05
2.074e-05
2.242e-05
2.406e-05
2.562e-05
2.705e-05
2.83e-05
7.974e-09
4.432e-08
1.218e-07
2.428e-07
4.076e-07
6.175e-07
8.74e-07
1.179e-06
1.535e-06
1.943e-06
2.407e-06
2.929e-06
3.512e-06
4.157e-06
4.866e-06
5.642e-06
6.484e-06
7.391e-06
8.361e-06
9.39e-06
1.047e-05
1.159e-05
1.273e-05
1.389e-05
1.502e-05
1.611e-05
1.713e-05
1.805e-05
1.882e-05
1.942e-05
1.983e-05
2.003e-05
7.642e-09
4.326e-08
1.191e-07
2.375e-07
3.985e-07
6.032e-07
8.53e-07
1.149e-06
1.494e-06
1.889e-06
2.336e-06
2.836e-06
3.391e-06
4.002e-06
4.668e-06
5.39e-06
6.165e-06
6.988e-06
7.855e-06
8.754e-06
9.675e-06
1.06e-05
1.151e-05
1.238e-05
1.318e-05
1.387e-05
1.444e-05
1.483e-05
1.503e-05
1.502e-05
1.479e-05
1.434e-05
7.152e-09
4.088e-08
1.126e-07
2.242e-07
3.759e-07
5.686e-07
8.035e-07
1.082e-06
1.405e-06
1.774e-06
2.19e-06
2.655e-06
3.168e-06
3.73e-06
4.34e-06
4.996e-06
5.694e-06
6.428e-06
7.19e-06
7.968e-06
8.748e-06