/*--------------------------------*- C++ -*----------------------------------*\
  =========                 |
  \\      /  F ield         | OpenFOAM: The Open Source CFD Toolbox
   \\    /   O peration     | Website:  https://openfoam.org
    \\  /    A nd           | Version:  6
     \\/     M anipulation  |
\*---------------------------------------------------------------------------*/
FoamFile
{
    version     2.0;
    format      ascii;
    class       volScalarField;
    location    "5";
    object      T;
}
// * * * * * * * * * * * * * * * * * * * * * * * * * * * * * * * * * * * * * //

dimensions      [0 0 0 1 0 0 0];

internalField   nonuniform List<scalar> 
16128
(
7.378
7.377
7.373
7.369
7.362
7.355
7.345
7.335
7.323
7.31
7.295
7.279
7.261
7.243
7.222
7.201
7.177
7.153
7.127
7.099
7.07
7.039
7.006
6.972
6.936
6.898
6.857
6.814
6.767
6.715
6.657
6.587
7.374
7.372
7.369
7.364
7.358
7.35
7.341
7.33
7.319
7.305
7.291
7.274
7.257
7.238
7.218
7.196
7.173
7.148
7.122
7.094
7.065
7.034
7.001
6.966
6.93
6.891
6.85
6.805
6.757
6.705
6.646
6.576
7.365
7.363
7.36
7.355
7.349
7.341
7.332
7.321
7.31
7.296
7.282
7.265
7.248
7.229
7.209
7.187
7.163
7.139
7.112
7.084
7.054
7.023
6.99
6.955
6.917
6.878
6.835
6.79
6.741
6.687
6.626
6.556
7.351
7.349
7.346
7.341
7.335
7.327
7.318
7.308
7.296
7.283
7.268
7.252
7.234
7.215
7.195
7.173
7.149
7.124
7.098
7.07
7.04
7.008
6.974
6.938
6.9
6.859
6.816
6.769
6.718
6.662
6.6
6.529
7.368
7.366
7.363
7.358
7.352
7.344
7.335
7.324
7.312
7.298
7.284
7.267
7.249
7.23
7.21
7.187
7.164
7.139
7.112
7.084
7.054
7.022
6.988
6.952
6.914
6.873
6.829
6.781
6.728
6.667
6.595
6.506
7.364
7.362
7.359
7.354
7.347
7.339
7.33
7.32
7.308
7.294
7.279
7.263
7.245
7.226
7.205
7.183
7.159
7.134
7.107
7.079
7.048
7.016
6.983
6.946
6.908
6.867
6.822
6.774
6.72
6.659
6.587
6.499
7.355
7.353
7.35
7.345
7.338
7.331
7.321
7.311
7.299
7.285
7.27
7.254
7.236
7.217
7.196
7.174
7.15
7.125
7.098
7.069
7.039
7.006
6.972
6.935
6.896
6.854
6.809
6.76
6.705
6.643
6.572
6.487
7.341
7.339
7.336
7.331
7.325
7.317
7.308
7.297
7.285
7.272
7.257
7.24
7.223
7.203
7.182
7.16
7.136
7.111
7.084
7.055
7.024
6.991
6.956
6.919
6.879
6.837
6.791
6.74
6.685
6.623
6.553
6.47
7.348
7.346
7.343
7.338
7.331
7.323
7.313
7.302
7.29
7.276
7.261
7.244
7.225
7.205
7.184
7.161
7.136
7.11
7.082
7.052
7.02
6.986
6.95
6.911
6.869
6.823
6.773
6.718
6.656
6.584
6.499
6.397
7.344
7.342
7.338
7.333
7.327
7.319
7.309
7.298
7.285
7.272
7.256
7.239
7.221
7.201
7.18
7.156
7.132
7.105
7.077
7.047
7.015
6.981
6.945
6.905
6.863
6.818
6.768
6.712
6.65
6.578
6.494
6.395
7.335
7.333
7.329
7.324
7.318
7.31
7.3
7.289
7.277
7.263
7.247
7.23
7.212
7.192
7.171
7.148
7.123
7.096
7.068
7.038
7.006
6.971
6.935
6.895
6.853
6.807
6.756
6.701
6.638
6.568
6.486
6.39
7.321
7.32
7.316
7.311
7.304
7.296
7.287
7.276
7.263
7.25
7.234
7.217
7.199
7.179
7.157
7.134
7.109
7.083
7.054
7.024
6.992
6.957
6.92
6.88
6.837
6.791
6.74
6.685
6.623
6.553
6.474
6.384
7.319
7.316
7.313
7.307
7.3
7.292
7.282
7.27
7.257
7.243
7.226
7.209
7.189
7.168
7.146
7.121
7.095
7.067
7.037
7.005
6.97
6.933
6.894
6.851
6.804
6.753
6.696
6.634
6.563
6.482
6.388
6.28
7.314
7.312
7.308
7.303
7.296
7.288
7.278
7.266
7.253
7.238
7.222
7.205
7.185
7.164
7.142
7.117
7.091
7.063
7.033
7.001
6.966
6.929
6.889
6.846
6.799
6.748
6.692
6.629
6.559
6.478
6.387
6.281
7.306
7.303
7.3
7.294
7.287
7.279
7.269
7.257
7.244
7.23
7.214
7.196
7.177
7.156
7.133
7.109
7.082
7.054
7.024
6.992
6.957
6.92
6.88
6.837
6.79
6.739
6.683
6.62
6.551
6.472
6.383
6.282
7.292
7.29
7.287
7.281
7.274
7.266
7.256
7.244
7.231
7.217
7.201
7.183
7.164
7.143
7.12
7.096
7.07
7.041
7.011
6.979
6.944
6.907
6.867
6.823
6.777
6.726
6.67
6.608
6.54
6.464
6.379
6.283
7.28
7.278
7.274
7.268
7.26
7.251
7.241
7.229
7.215
7.199
7.182
7.163
7.143
7.121
7.096
7.07
7.042
7.012
6.98
6.945
6.907
6.867
6.823
6.776
6.724
6.667
6.605
6.535
6.458
6.371
6.273
6.163
7.276
7.273
7.269
7.264
7.256
7.247
7.237
7.224
7.211
7.195
7.178
7.159
7.139
7.116
7.092
7.066
7.038
7.008
6.976
6.941
6.903
6.863
6.819
6.772
6.72
6.664
6.601
6.532
6.455
6.37
6.273
6.166
7.267
7.265
7.261
7.255
7.248
7.239
7.228
7.216
7.202
7.187
7.17
7.151
7.131
7.108
7.084
7.058
7.03
7
6.968
6.933
6.895
6.855
6.811
6.764
6.712
6.656
6.594
6.526
6.451
6.367
6.274
6.171
7.255
7.252
7.248
7.242
7.235
7.226
7.216
7.204
7.19
7.174
7.157
7.139
7.118
7.096
7.072
7.046
7.018
6.988
6.956
6.921
6.883
6.843
6.799
6.752
6.701
6.646
6.585
6.518
6.444
6.363
6.274
6.177
7.233
7.231
7.226
7.22
7.212
7.202
7.191
7.178
7.163
7.147
7.128
7.108
7.086
7.063
7.037
7.009
6.979
6.946
6.911
6.873
6.833
6.789
6.741
6.689
6.633
6.571
6.504
6.429
6.347
6.257
6.157
6.049
7.229
7.226
7.222
7.216
7.208
7.198
7.187
7.174
7.159
7.143
7.125
7.105
7.083
7.059
7.033
7.005
6.975
6.942
6.907
6.87
6.829
6.785
6.737
6.686
6.63
6.568
6.501
6.428
6.346
6.257
6.159
6.053
7.221
7.218
7.214
7.208
7.2
7.19
7.179
7.166
7.151
7.135
7.117
7.097
7.075
7.051
7.025
6.997
6.967
6.935
6.9
6.862
6.822
6.778
6.731
6.679
6.624
6.563
6.497
6.424
6.344
6.257
6.162
6.06
7.209
7.206
7.202
7.195
7.187
7.178
7.167
7.154
7.139
7.123
7.105
7.085
7.063
7.04
7.014
6.986
6.956
6.924
6.889
6.852
6.811
6.768
6.721
6.67
6.615
6.555
6.49
6.419
6.341
6.257
6.166
6.069
7.179
7.176
7.171
7.164
7.155
7.145
7.133
7.119
7.103
7.086
7.066
7.045
7.022
6.996
6.968
6.938
6.906
6.871
6.833
6.793
6.749
6.701
6.65
6.594
6.534
6.469
6.397
6.319
6.234
6.143
6.043
5.938
7.175
7.172
7.167
7.16
7.152
7.141
7.129
7.115
7.1
7.082
7.063
7.041
7.018
6.992
6.965
6.935
6.902
6.868
6.83
6.789
6.746
6.698
6.647
6.592
6.532
6.467
6.396
6.318
6.235
6.144
6.046
5.943
7.167
7.164
7.159
7.152
7.144
7.134
7.122
7.108
7.092
7.075
7.055
7.034
7.011
6.985
6.958
6.928
6.896
6.861
6.823
6.783
6.739
6.692
6.642
6.587
6.527
6.463
6.393
6.317
6.235
6.146
6.051
5.951
7.155
7.152
7.147
7.141
7.132
7.122
7.11
7.096
7.081
7.063
7.044
7.023
7
6.974
6.947
6.917
6.885
6.851
6.813
6.773
6.73
6.683
6.633
6.579
6.52
6.457
6.388
6.314
6.234
6.149
6.058
5.963
7.118
7.114
7.109
7.101
7.092
7.081
7.068
7.053
7.037
7.018
6.997
6.974
6.949
6.922
6.892
6.86
6.826
6.788
6.748
6.705
6.658
6.607
6.553
6.494
6.43
6.362
6.288
6.208
6.122
6.03
5.933
5.831
7.114
7.11
7.105
7.098
7.089
7.078
7.065
7.05
7.033
7.014
6.994
6.971
6.946
6.919
6.889
6.857
6.823
6.785
6.745
6.702
6.655
6.605
6.55
6.492
6.429
6.361
6.287
6.208
6.123
6.032
5.936
5.836
7.106
7.103
7.098
7.09
7.081
7.07
7.057
7.043
7.026
7.007
6.987
6.964
6.939
6.912
6.883
6.851
6.816
6.779
6.739
6.696
6.65
6.6
6.546
6.488
6.425
6.358
6.286
6.208
6.124
6.036
5.943
5.846
7.095
7.092
7.086
7.079
7.07
7.059
7.046
7.032
7.015
6.997
6.976
6.954
6.929
6.902
6.873
6.841
6.807
6.77
6.73
6.688
6.642
6.592
6.539
6.482
6.42
6.354
6.283
6.207
6.126
6.041
5.951
5.858
7.05
7.047
7.041
7.033
7.023
7.011
6.997
6.982
6.964
6.944
6.922
6.897
6.871
6.842
6.81
6.776
6.739
6.7
6.657
6.611
6.561
6.508
6.451
6.39
6.324
6.253
6.177
6.096
6.011
5.92
5.825
5.728
7.047
7.043
7.037
7.029
7.02
7.008
6.994
6.978
6.96
6.94
6.918
6.894
6.868
6.839
6.807
6.773
6.737
6.697
6.654
6.609
6.559
6.506
6.449
6.388
6.323
6.252
6.177
6.097
6.012
5.923
5.829
5.733
7.04
7.036
7.03
7.022
7.013
7.001
6.987
6.971
6.954
6.934
6.912
6.888
6.861
6.832
6.801
6.767
6.731
6.692
6.649
6.604
6.555
6.502
6.446
6.385
6.321
6.251
6.177
6.098
6.015
5.927
5.836
5.743
7.029
7.025
7.02
7.012
7.002
6.99
6.977
6.961
6.944
6.924
6.902
6.878
6.852
6.823
6.792
6.759
6.723
6.684
6.642
6.597
6.548
6.496
6.441
6.381
6.317
6.249
6.177
6.1
6.019
5.934
5.846
5.756
6.978
6.974
6.968
6.959
6.949
6.936
6.921
6.905
6.886
6.864
6.841
6.815
6.787
6.756
6.723
6.687
6.648
6.606
6.561
6.513
6.462
6.406
6.347
6.283
6.216
6.144
6.067
5.986
5.901
5.813
5.722
5.629
6.975
6.971
6.964
6.956
6.945
6.933
6.918
6.901
6.883
6.861
6.838
6.812
6.784
6.754
6.72
6.684
6.646
6.604
6.559
6.511
6.46
6.405
6.346
6.283
6.215
6.144
6.068
5.988
5.903
5.816
5.726
5.634
6.968
6.964
6.958
6.949
6.939
6.926
6.912
6.895
6.876
6.855
6.832
6.806
6.778
6.748
6.715
6.679
6.641
6.599
6.555
6.507
6.456
6.401
6.343
6.281
6.214
6.144
6.069
5.99
5.907
5.821
5.733
5.644
6.958
6.954
6.948
6.939
6.929
6.917
6.902
6.886
6.867
6.846
6.823
6.798
6.77
6.74
6.707
6.672
6.633
6.592
6.548
6.501
6.451
6.397
6.339
6.278
6.212
6.143
6.07
5.993
5.912
5.829
5.743
5.657
6.902
6.897
6.891
6.881
6.87
6.857
6.841
6.823
6.803
6.781
6.756
6.729
6.699
6.667
6.632
6.594
6.554
6.51
6.463
6.413
6.359
6.302
6.241
6.176
6.108
6.035
5.958
5.878
5.795
5.709
5.621
5.532
6.899
6.894
6.887
6.878
6.867
6.854
6.838
6.821
6.801
6.778
6.754
6.726
6.697
6.665
6.63
6.592
6.552
6.508
6.461
6.411
6.358
6.301
6.24
6.176
6.107
6.035
5.959
5.88
5.797
5.712
5.625
5.537
6.892
6.888
6.881
6.872
6.861
6.848
6.832
6.815
6.795
6.773
6.748
6.721
6.692
6.66
6.625
6.588
6.547
6.504
6.458
6.408
6.355
6.299
6.239
6.175
6.107
6.036
5.961
5.883
5.801
5.718
5.633
5.547
6.883
6.879
6.872
6.863
6.852
6.839
6.823
6.806
6.786
6.764
6.74
6.713
6.684
6.652
6.618
6.581
6.541
6.498
6.452
6.403
6.351
6.295
6.236
6.173
6.107
6.037
5.963
5.887
5.808
5.726
5.643
5.561
6.822
6.817
6.81
6.8
6.788
6.774
6.758
6.739
6.718
6.694
6.668
6.64
6.609
6.575
6.538
6.499
6.457
6.411
6.363
6.311
6.256
6.197
6.135
6.069
6
5.927
5.851
5.772
5.69
5.607
5.523
5.439
6.819
6.814
6.807
6.797
6.786
6.771
6.755
6.736
6.715
6.692
6.666
6.637
6.606
6.573
6.536
6.497
6.455
6.41
6.361
6.31
6.255
6.196
6.134
6.069
6
5.928
5.852
5.774
5.693
5.61
5.527
5.444
6.813
6.809
6.801
6.792
6.78
6.766
6.75
6.731
6.71
6.687
6.661
6.633
6.602
6.568
6.532
6.493
6.451
6.406
6.358
6.307
6.253
6.195
6.134
6.069
6.001
5.929
5.855
5.778
5.698
5.617
5.535
5.453
6.804
6.8
6.792
6.783
6.771
6.757
6.741
6.723
6.702
6.679
6.653
6.625
6.595
6.562
6.526
6.487
6.446
6.401
6.354
6.303
6.249
6.192
6.132
6.068
6.001
5.931
5.858
5.783
5.705
5.626
5.546
5.467
6.74
6.735
6.727
6.716
6.704
6.689
6.672
6.652
6.63
6.605
6.578
6.548
6.516
6.481
6.443
6.402
6.358
6.311
6.261
6.208
6.151
6.092
6.029
5.963
5.893
5.821
5.746
5.668
5.588
5.508
5.427
5.347
6.737
6.732
6.724
6.714
6.701
6.686
6.669
6.65
6.628
6.603
6.576
6.546
6.514
6.479
6.441
6.4
6.356
6.31
6.26
6.207
6.151
6.091
6.029
5.963
5.894
5.822
5.747
5.67
5.591
5.511
5.431
5.352
6.731
6.726
6.719
6.709
6.696
6.681
6.664
6.645
6.623
6.598
6.571
6.542
6.51
6.475
6.437
6.397
6.353
6.307
6.258
6.205
6.149
6.091
6.029
5.963
5.895
5.824
5.75
5.674
5.597
5.518
5.439
5.362
6.723
6.718
6.71
6.7
6.688
6.674
6.657
6.637
6.615
6.591
6.565
6.535
6.503
6.469
6.432
6.392
6.349
6.303
6.254
6.202
6.147
6.089
6.028
5.964
5.897
5.827
5.754
5.68
5.604
5.527
5.451
5.375
6.655
6.65
6.642
6.631
6.618
6.602
6.584
6.563
6.54
6.515
6.486
6.455
6.422
6.385
6.346
6.304
6.258
6.21
6.159
6.105
6.047
5.987
5.923
5.857
5.788
5.716
5.642
5.566
5.489
5.411
5.334
5.258
6.653
6.647
6.639
6.628
6.615
6.6
6.582
6.561
6.538
6.513
6.484
6.453
6.42
6.383
6.344
6.302
6.257
6.209
6.158
6.104
6.047
5.987
5.924
5.858
5.789
5.717
5.644
5.568
5.492
5.415
5.338
5.263
6.648
6.642
6.634
6.623
6.61
6.595
6.577
6.557
6.534
6.508
6.48
6.45
6.416
6.38
6.341
6.299
6.255
6.207
6.157
6.103
6.046
5.987
5.924
5.859
5.791
5.72
5.647
5.573
5.497
5.421
5.346
5.272
6.64
6.635
6.627
6.616
6.603
6.588
6.57
6.55
6.527
6.502
6.474
6.444
6.411
6.375
6.336
6.295
6.251
6.204
6.154
6.101
6.045
5.986
5.925
5.86
5.793
5.724
5.652
5.579
5.505
5.431
5.357
5.285
6.57
6.564
6.555
6.544
6.53
6.514
6.495
6.474
6.45
6.423
6.394
6.361
6.327
6.289
6.248
6.205
6.159
6.109
6.057
6.002
5.944
5.883
5.819
5.753
5.684
5.613
5.54
5.466
5.391
5.316
5.242
5.17
6.567
6.562
6.553
6.542
6.528
6.512
6.493
6.472
6.448
6.421
6.392
6.36
6.325
6.288
6.247
6.204
6.158
6.109
6.057
6.002
5.944
5.883
5.82
5.754
5.685
5.615
5.542
5.468
5.394
5.32
5.246
5.175
6.563
6.557
6.548
6.537
6.524
6.507
6.489
6.468
6.444
6.417
6.388
6.356
6.322
6.285
6.245
6.202
6.156
6.107
6.055
6.001
5.944
5.883
5.821
5.755
5.687
5.618
5.546
5.473
5.4
5.327
5.254
5.184
6.556
6.55
6.541
6.53
6.517
6.501
6.482
6.461
6.438
6.412
6.383
6.351
6.317
6.28
6.241
6.198
6.153
6.105
6.054
6
5.943
5.884
5.822
5.757
5.691
5.622
5.552
5.48
5.408
5.336
5.266
5.197
6.483
6.477
6.468
6.456
6.442
6.425
6.406
6.383
6.358
6.331
6.3
6.267
6.231
6.193
6.151
6.106
6.059
6.009
5.956
5.9
5.841
5.78
5.716
5.65
5.582
5.512
5.44
5.368
5.295
5.223
5.152
5.083
6.481
6.475
6.466
6.454
6.44
6.423
6.404
6.382
6.357
6.329
6.299
6.266
6.23
6.191
6.15
6.106
6.058
6.008
5.955
5.9
5.841
5.78
5.717
5.651
5.583
5.513
5.442
5.37
5.298
5.226
5.156
5.088
6.477
6.471
6.462
6.45
6.436
6.419
6.4
6.378
6.353
6.326
6.296
6.263
6.227
6.189
6.148
6.104
6.057
6.007
5.955
5.9
5.842
5.781
5.718
5.653
5.586
5.517
5.447
5.375
5.304
5.233
5.164
5.096
6.47
6.464
6.456
6.444
6.43
6.413
6.394
6.372
6.348
6.321
6.291
6.259
6.223
6.185
6.145
6.101
6.055
6.006
5.954
5.899
5.842
5.782
5.72
5.656
5.59
5.522
5.453
5.383
5.313
5.243
5.175
5.109
6.396
6.39
6.381
6.369
6.354
6.336
6.316
6.293
6.267
6.239
6.207
6.173
6.136
6.097
6.054
6.008
5.96
5.909
5.855
5.799
5.74
5.678
5.614
5.548
5.481
5.412
5.342
5.271
5.2
5.131
5.063
4.997
6.394
6.388
6.379
6.367
6.352
6.335
6.314
6.291
6.266
6.237
6.206
6.172
6.135
6.096
6.053
6.008
5.96
5.909
5.855
5.799
5.74
5.679
5.615
5.55
5.482
5.414
5.344
5.274
5.204
5.134
5.067
5.001
6.391
6.384
6.375
6.363
6.348
6.331
6.311
6.288
6.263
6.234
6.203
6.17
6.133
6.094
6.051
6.006
5.959
5.908
5.855
5.799
5.741
5.68
5.617
5.552
5.486
5.418
5.349
5.279
5.21
5.141
5.075
5.01
6.385
6.379
6.369
6.357
6.343
6.326
6.306
6.283
6.258
6.23
6.199
6.166
6.13
6.091
6.049
6.004
5.957
5.907
5.855
5.8
5.742
5.682
5.62
5.556
5.49
5.423
5.355
5.287
5.219
5.152
5.086
5.023
6.31
6.303
6.294
6.281
6.266
6.248
6.227
6.203
6.176
6.147
6.115
6.08
6.042
6.001
5.957
5.911
5.862
5.81
5.756
5.699
5.639
5.578
5.514
5.448
5.381
5.313
5.245
5.176
5.107
5.04
4.974
4.911
6.308
6.302
6.292
6.28
6.264
6.246
6.225
6.202
6.175
6.146
6.114
6.079
6.041
6
5.957
5.911
5.862
5.81
5.756
5.699
5.64
5.578
5.515
5.45
5.383
5.315
5.247
5.179
5.11
5.043
4.978
4.916
6.305
6.298
6.289
6.276
6.261
6.243
6.222
6.199
6.172
6.143
6.111
6.077
6.039
5.999
5.956
5.91
5.861
5.81
5.756
5.7
5.641
5.58
5.517
5.453
5.387
5.32
5.252
5.184
5.117
5.051
4.986
4.924
6.299
6.293
6.283
6.271
6.256
6.238
6.218
6.194
6.168
6.139
6.108
6.073
6.036
5.996
5.954
5.908
5.86
5.81
5.756
5.701
5.643
5.583
5.521
5.457
5.392
5.326
5.259
5.192
5.126
5.061
4.998
4.937
6.224
6.217
6.207
6.194
6.178
6.16
6.138
6.114
6.086
6.056
6.023
5.987
5.948
5.906
5.862
5.815
5.765
5.712
5.657
5.6
5.54
5.478
5.415
5.35
5.283
5.216
5.149
5.081
5.015
4.95
4.886
4.826
6.222
6.216
6.206
6.193
6.177
6.158
6.137
6.112
6.085
6.055
6.022
5.986
5.947
5.906
5.862
5.814
5.765
5.712
5.658
5.6
5.541
5.479
5.416
5.351
5.285
5.219
5.151
5.084
5.018
4.953
4.89
4.83
6.219
6.212
6.203
6.19
6.174
6.155
6.134
6.11
6.083
6.053
6.02
5.984
5.946
5.905
5.861
5.814
5.765
5.713
5.658
5.601
5.543
5.482
5.419
5.355
5.289
5.223
5.157
5.09
5.025
4.96
4.898
4.839
6.214
6.208
6.198
6.185
6.169
6.151
6.13
6.106
6.079
6.05
6.017
5.982
5.944
5.903
5.859
5.813
5.764
5.713
5.659
5.603
5.545
5.485
5.423
5.359
5.295
5.23
5.164
5.099
5.034
4.971
4.91
4.852
6.139
6.132
6.122
6.108
6.092
6.073
6.05
6.025
5.997
5.966
5.932
5.895
5.855
5.813
5.767
5.719
5.669
5.615
5.56
5.502
5.442
5.38
5.317
5.252
5.187
5.12
5.054
4.988
4.923
4.86
4.799
4.741
6.137
6.13
6.12
6.107
6.091
6.071
6.049
6.024
5.996
5.965
5.931
5.894
5.855
5.812
5.767
5.719
5.669
5.616
5.56
5.503
5.443
5.382
5.318
5.254
5.189
5.123
5.057
4.991
4.927
4.864
4.803
4.745
6.134
6.128
6.117
6.104
6.088
6.069
6.047
6.022
5.994
5.963
5.93
5.893
5.854
5.812
5.767
5.719
5.669
5.616
5.562
5.504
5.445
5.384
5.322
5.258
5.193
5.128
5.062
4.997
4.933
4.871
4.811
4.754
6.13
6.123
6.113
6.1
6.084
6.065
6.043
6.018
5.991
5.96
5.927
5.891
5.852
5.81
5.766
5.719
5.669
5.617
5.563
5.507
5.448
5.388
5.326
5.263
5.199
5.135
5.07
5.006
4.943
4.882
4.823
4.767
7.333
7.331
7.328
7.323
7.317
7.309
7.3
7.29
7.278
7.264
7.25
7.234
7.216
7.197
7.177
7.155
7.131
7.106
7.079
7.05
7.02
6.988
6.953
6.917
6.878
6.836
6.791
6.743
6.691
6.633
6.57
6.498
7.31
7.308
7.305
7.3
7.294
7.286
7.277
7.267
7.255
7.242
7.227
7.211
7.193
7.174
7.154
7.132
7.108
7.083
7.055
7.027
6.996
6.963
6.928
6.891
6.851
6.809
6.763
6.714
6.661
6.603
6.54
6.47
7.281
7.28
7.277
7.272
7.266
7.258
7.249
7.239
7.227
7.214
7.199
7.183
7.166
7.147
7.126
7.104
7.08
7.055
7.028
6.999
6.968
6.935
6.899
6.862
6.822
6.779
6.732
6.683
6.63
6.572
6.51
6.443
7.248
7.247
7.243
7.239
7.233
7.225
7.216
7.206
7.194
7.181
7.167
7.151
7.133
7.114
7.094
7.072
7.048
7.022
6.995
6.966
6.935
6.902
6.866
6.829
6.788
6.745
6.699
6.65
6.597
6.541
6.481
6.417
7.21
7.208
7.205
7.2
7.194
7.187
7.178
7.168
7.156
7.143
7.129
7.113
7.095
7.077
7.056
7.034
7.011
6.985
6.958
6.929
6.898
6.865
6.83
6.792
6.752
6.709
6.663
6.615
6.563
6.509
6.451
6.391
7.165
7.164
7.161
7.156
7.15
7.143
7.134
7.124
7.113
7.1
7.085
7.07
7.052
7.034
7.014
6.992
6.968
6.943
6.916
6.888
6.857
6.824
6.789
6.752
6.712
6.67
6.625
6.578
6.528
6.476
6.421
6.365
7.115
7.114
7.111
7.106
7.1
7.093
7.084
7.074
7.063
7.05
7.036
7.021
7.004
6.985
6.966
6.944
6.921
6.896
6.87
6.841
6.811
6.779
6.744
6.708
6.669
6.628
6.585
6.539
6.491
6.441
6.39
6.338
7.059
7.057
7.054
7.05
7.044
7.037
7.029
7.019
7.008
6.995
6.981
6.966
6.949
6.931
6.912
6.891
6.868
6.844
6.818
6.79
6.76
6.729
6.695
6.66
6.622
6.583
6.541
6.498
6.452
6.405
6.357
6.309
6.996
6.994
6.991
6.987
6.981
6.974
6.966
6.956
6.945
6.933
6.92
6.905
6.888
6.871
6.852
6.831
6.809
6.785
6.76
6.733
6.704
6.674
6.641
6.607
6.571
6.534
6.494
6.453
6.41
6.366
6.322
6.277
6.925
6.924
6.921
6.917
6.911
6.905
6.896
6.887
6.876
6.864
6.851
6.836
6.821
6.803
6.785
6.764
6.743
6.72
6.696
6.669
6.642
6.613
6.582
6.549
6.515
6.48
6.442
6.404
6.364
6.324
6.283
6.243
6.848
6.846
6.843
6.839
6.834
6.827
6.819
6.81
6.8
6.788
6.775
6.761
6.745
6.728
6.71
6.691
6.67
6.648
6.624
6.599
6.573
6.545
6.516
6.485
6.453
6.42
6.386
6.35
6.314
6.277
6.24
6.204
6.762
6.76
6.757
6.753
6.748
6.742
6.734
6.725
6.715
6.703
6.691
6.677
6.661
6.645
6.628
6.609
6.589
6.567
6.545
6.521
6.496
6.47
6.443
6.414
6.385
6.354
6.322
6.29
6.257
6.225
6.192
6.16
6.667
6.666
6.663
6.659
6.654
6.648
6.64
6.631
6.621
6.61
6.598
6.584
6.569
6.553
6.536
6.518
6.499
6.478
6.457
6.434
6.411
6.386
6.361
6.335
6.307
6.28
6.251
6.222
6.194
6.165
6.136
6.108
6.566
6.564
6.562
6.558
6.553
6.546
6.539
6.53
6.52
6.509
6.497
6.483
6.469
6.453
6.437
6.419
6.4
6.381
6.36
6.339
6.317
6.294
6.271
6.246
6.222
6.197
6.172
6.146
6.121
6.097
6.072
6.049
6.467
6.466
6.463
6.46
6.454
6.448
6.441
6.432
6.422
6.411
6.399
6.385
6.371
6.356
6.339
6.322
6.304
6.285
6.265
6.245
6.224
6.202
6.18
6.158
6.136
6.113
6.091
6.069
6.047
6.026
6.006
5.987
7.323
7.321
7.318
7.313
7.307
7.299
7.29
7.279
7.267
7.254
7.239
7.222
7.205
7.185
7.164
7.142
7.118
7.092
7.065
7.036
7.005
6.972
6.936
6.899
6.858
6.815
6.768
6.717
6.661
6.599
6.53
6.452
7.3
7.298
7.295
7.29
7.284
7.276
7.267
7.256
7.244
7.231
7.216
7.2
7.182
7.163
7.142
7.119
7.095
7.069
7.042
7.012
6.981
6.948
6.912
6.874
6.833
6.789
6.741
6.69
6.634
6.573
6.506
6.432
7.272
7.27
7.267
7.262
7.256
7.248
7.239
7.229
7.217
7.203
7.189
7.172
7.155
7.135
7.114
7.092
7.068
7.042
7.014
6.985
6.953
6.92
6.884
6.845
6.804
6.76
6.712
6.661
6.606
6.546
6.481
6.411
7.239
7.237
7.234
7.229
7.223
7.215
7.206
7.196
7.184
7.171
7.156
7.14
7.122
7.103
7.082
7.06
7.036
7.01
6.982
6.953
6.921
6.887
6.851
6.813
6.771
6.727
6.68
6.63
6.575
6.517
6.455
6.39
7.201
7.199
7.196
7.191
7.185
7.177
7.168
7.158
7.146
7.133
7.119
7.103
7.085
7.066
7.045
7.023
6.999
6.973
6.946
6.916
6.885
6.851
6.815
6.777
6.736
6.692
6.646
6.596
6.543
6.488
6.429
6.367
7.157
7.155
7.152
7.147
7.141
7.134
7.125
7.115
7.103
7.09
7.076
7.06
7.042
7.024
7.003
6.981
6.957
6.932
6.905
6.875
6.844
6.811
6.775
6.738
6.697
6.655
6.609
6.561
6.51
6.457
6.401
6.344
7.107
7.105
7.102
7.098
7.092
7.084
7.076
7.066
7.054
7.041
7.027
7.011
6.994
6.976
6.955
6.934
6.91
6.885
6.858
6.83
6.799
6.766
6.732
6.695
6.655
6.614
6.57
6.523
6.475
6.424
6.372
6.319
7.051
7.049
7.046
7.042
7.036
7.029
7.02
7.01
6.999
6.986
6.972
6.957
6.94
6.922
6.902
6.881
6.858
6.833
6.807
6.779
6.749
6.717
6.683
6.647
6.609
6.569
6.527
6.483
6.437
6.39
6.341
6.292
6.988
6.986
6.983
6.979
6.973
6.966
6.958
6.948
6.937
6.925
6.911
6.896
6.88
6.862
6.843
6.822
6.799
6.775
6.75
6.723
6.694
6.663
6.63
6.596
6.559
6.521
6.481
6.44
6.397
6.352
6.307
6.262
6.918
6.917
6.914
6.91
6.904
6.897
6.889
6.879
6.869
6.857
6.843
6.828
6.812
6.795
6.776
6.756
6.734
6.711
6.686
6.66
6.632
6.603
6.572
6.539
6.504
6.468
6.431
6.392
6.352
6.311
6.27
6.229
6.841
6.839
6.837
6.832
6.827
6.82
6.812
6.803
6.792
6.781
6.768
6.753
6.738
6.721
6.702
6.683
6.662
6.64
6.616
6.591
6.564
6.536
6.507
6.476
6.444
6.41
6.375
6.34
6.303
6.266
6.229
6.192
6.755
6.754
6.751
6.747
6.742
6.735
6.728
6.718
6.708
6.697
6.684
6.67
6.655
6.638
6.621
6.602
6.582
6.56
6.537
6.514
6.488
6.462
6.435
6.406
6.376
6.345
6.313
6.281
6.248
6.215
6.182
6.149
6.662
6.66
6.658
6.654
6.648
6.642
6.634
6.625
6.615
6.604
6.592
6.578
6.563
6.547
6.53
6.512
6.492
6.472
6.45
6.428
6.404
6.379
6.354
6.327
6.3
6.272
6.243
6.215
6.185
6.156
6.128
6.1
6.561
6.559
6.557
6.553
6.548
6.541
6.534
6.525
6.515
6.504
6.492
6.478
6.464
6.448
6.431
6.414
6.395
6.375
6.355
6.333
6.311
6.288
6.265
6.24
6.216
6.191
6.165
6.14
6.115
6.09
6.066
6.042
6.463
6.462
6.459
6.455
6.45
6.444
6.436
6.427
6.417
6.406
6.394
6.381
6.366
6.351
6.335
6.317
6.299
6.28
6.26
6.24
6.219
6.197
6.175
6.153
6.13
6.108
6.085
6.063
6.042
6.021
6
5.981
7.303
7.302
7.298
7.293
7.287
7.279
7.269
7.258
7.246
7.232
7.216
7.2
7.181
7.161
7.14
7.117
7.092
7.065
7.036
7.006
6.973
6.938
6.901
6.861
6.818
6.771
6.72
6.665
6.604
6.536
6.46
6.376
7.281
7.279
7.275
7.27
7.264
7.256
7.247
7.236
7.223
7.21
7.194
7.177
7.159
7.139
7.118
7.094
7.069
7.043
7.014
6.983
6.951
6.916
6.878
6.838
6.794
6.748
6.697
6.642
6.582
6.516
6.444
6.365
7.253
7.251
7.248
7.243
7.237
7.229
7.219
7.208
7.196
7.182
7.167
7.15
7.132
7.112
7.091
7.068
7.043
7.016
6.987
6.957
6.924
6.889
6.851
6.811
6.767
6.721
6.671
6.616
6.558
6.494
6.426
6.353
7.221
7.219
7.215
7.211
7.204
7.196
7.187
7.176
7.164
7.15
7.135
7.119
7.101
7.081
7.059
7.036
7.012
6.985
6.956
6.926
6.893
6.858
6.82
6.78
6.737
6.691
6.642
6.589
6.532
6.471
6.406
6.338
7.183
7.181
7.178
7.173
7.167
7.159
7.15
7.139
7.127
7.113
7.098
7.082
7.064
7.044
7.023
7
6.976
6.949
6.921
6.89
6.858
6.823
6.786
6.746
6.704
6.659
6.61
6.559
6.504
6.446
6.385
6.322
7.139
7.138
7.134
7.13
7.123
7.116
7.107
7.096
7.084
7.071
7.056
7.04
7.022
7.003
6.982
6.959
6.935
6.909
6.881
6.851
6.819
6.784
6.748
6.709
6.667
6.623
6.576
6.526
6.474
6.419
6.362
6.303
7.09
7.089
7.085
7.081
7.074
7.067
7.058
7.048
7.036
7.023
7.008
6.992
6.975
6.956
6.935
6.913
6.889
6.863
6.836
6.806
6.775
6.741
6.706
6.668
6.627
6.584
6.539
6.492
6.442
6.39
6.337
6.282
7.035
7.033
7.03
7.025
7.019
7.012
7.003
6.993
6.982
6.969
6.955
6.939
6.922
6.903
6.883
6.861
6.838
6.813
6.786
6.757
6.726
6.694
6.659
6.622
6.583
6.542
6.499
6.454
6.407
6.359
6.309
6.259
6.973
6.971
6.968
6.964
6.958
6.951
6.942
6.932
6.921
6.908
6.894
6.879
6.862
6.844
6.824
6.803
6.78
6.756
6.73
6.702
6.672
6.641
6.608
6.573
6.536
6.497
6.456
6.413
6.369
6.324
6.279
6.233
6.904
6.902
6.899
6.895
6.889
6.882
6.874
6.864
6.853
6.841
6.827
6.812
6.796
6.778
6.759
6.739
6.717
6.693
6.668
6.641
6.613
6.583
6.551
6.518
6.483
6.446
6.408
6.368
6.328
6.286
6.244
6.203
6.828
6.826
6.823
6.819
6.813
6.807
6.798
6.789
6.778
6.766
6.753
6.738
6.723
6.705
6.687
6.667
6.646
6.623
6.599
6.573
6.546
6.518
6.488
6.457
6.424
6.39
6.355
6.318
6.281
6.244
6.206
6.169
6.743
6.742
6.739
6.735
6.729
6.723
6.715
6.706
6.695
6.683
6.671
6.656
6.641
6.624
6.606
6.587
6.567
6.545
6.522
6.498
6.473
6.446
6.418
6.389
6.358
6.327
6.295
6.262
6.229
6.195
6.162
6.129
6.651
6.649
6.646
6.642
6.637
6.631
6.623
6.614
6.604
6.592
6.58
6.566
6.551
6.535
6.517
6.499
6.479
6.459
6.437
6.414
6.39
6.365
6.339
6.312
6.285
6.257
6.228
6.198
6.169
6.14
6.111
6.082
6.551
6.549
6.547
6.543
6.538
6.531
6.524
6.515
6.505
6.493
6.481
6.467
6.453
6.437
6.42
6.402
6.384
6.364
6.343
6.322
6.299
6.276
6.252
6.228
6.203
6.178
6.152
6.126
6.101
6.076
6.052
6.028
6.454
6.453
6.45
6.446
6.441
6.435
6.427
6.418
6.408
6.397
6.385
6.372
6.357
6.342
6.325
6.308
6.289
6.27
6.25
6.23
6.209
6.187
6.165
6.142
6.12
6.097
6.075
6.053
6.031
6.01
5.989
5.97
7.275
7.273
7.269
7.264
7.257
7.248
7.239
7.227
7.214
7.2
7.184
7.166
7.147
7.126
7.103
7.079
7.053
7.024
6.994
6.962
6.927
6.89
6.849
6.806
6.759
6.709
6.653
6.593
6.526
6.453
6.372
6.283
7.253
7.251
7.247
7.242
7.235
7.226
7.217
7.205
7.192
7.178
7.162
7.144
7.125
7.104
7.082
7.057
7.031
7.003
6.973
6.94
6.906
6.868
6.828
6.785
6.739
6.688
6.634
6.574
6.51
6.44
6.363
6.281
7.226
7.224
7.22
7.215
7.208
7.2
7.19
7.179
7.166
7.152
7.136
7.118
7.099
7.078
7.056
7.032
7.006
6.978
6.947
6.915
6.88
6.843
6.803
6.761
6.715
6.665
6.611
6.554
6.491
6.424
6.352
6.276
7.194
7.192
7.188
7.183
7.176
7.168
7.158
7.147
7.135
7.12
7.105
7.087
7.068
7.048
7.026
7.002
6.976
6.948
6.918
6.886
6.851
6.814
6.775
6.733
6.687
6.639
6.586
6.53
6.471
6.407
6.339
6.269
7.157
7.155
7.151
7.146
7.139
7.131
7.122
7.111
7.098
7.084
7.069
7.052
7.033
7.013
6.99
6.967
6.941
6.913
6.884
6.852
6.818
6.782
6.743
6.701
6.657
6.609
6.559
6.505
6.448
6.387
6.324
6.259
7.114
7.112
7.109
7.104
7.097
7.089
7.08
7.069
7.057
7.043
7.028
7.011
6.992
6.972
6.95
6.927
6.902
6.875
6.845
6.814
6.781
6.745
6.707
6.666
6.623
6.577
6.528
6.477
6.422
6.366
6.307
6.246
7.066
7.064
7.061
7.056
7.049
7.041
7.032
7.022
7.009
6.996
6.981
6.964
6.946
6.927
6.905
6.882
6.857
6.831
6.802
6.772
6.739
6.704
6.667
6.628
6.586
6.542
6.495
6.446
6.395
6.341
6.287
6.231
7.012
7.01
7.006
7.002
6.995
6.988
6.979
6.968
6.956
6.943
6.928
6.912
6.894
6.875
6.854
6.832
6.808
6.782
6.754
6.724
6.693
6.659
6.623
6.585
6.545
6.503
6.459
6.412
6.364
6.314
6.264
6.213
6.951
6.949
6.946
6.941
6.935
6.928
6.919
6.909
6.897
6.884
6.87
6.854
6.837
6.818
6.798
6.776
6.752
6.727
6.7
6.672
6.641
6.609
6.575
6.538
6.5
6.46
6.419
6.375
6.33
6.284
6.237
6.191
6.883
6.881
6.878
6.874
6.868
6.861
6.852
6.842
6.831
6.818
6.804
6.789
6.772
6.754
6.734
6.713
6.69
6.666
6.64
6.613
6.584
6.553
6.521
6.486
6.45
6.413
6.374
6.334
6.292
6.25
6.207
6.165
6.808
6.806
6.803
6.799
6.793
6.786
6.778
6.768
6.757
6.745
6.731
6.717
6.7
6.683
6.664
6.643
6.622
6.598
6.574
6.548
6.52
6.491
6.46
6.428
6.395
6.36
6.324
6.287
6.249
6.211
6.173
6.135
6.725
6.724
6.721
6.716
6.711
6.704
6.696
6.687
6.676
6.664
6.651
6.636
6.621
6.604
6.585
6.566
6.545
6.523
6.499
6.475
6.449
6.422
6.393
6.363
6.333
6.301
6.268
6.235
6.201
6.167
6.133
6.1
6.634
6.633
6.63
6.626
6.62
6.614
6.606
6.597
6.586
6.575
6.562
6.548
6.533
6.516
6.499
6.48
6.46
6.439
6.417
6.393
6.369
6.344
6.318
6.29
6.262
6.234
6.204
6.175
6.145
6.115
6.086
6.057
6.536
6.535
6.532
6.528
6.523
6.516
6.508
6.5
6.489
6.478
6.465
6.452
6.437
6.421
6.404
6.386
6.367
6.347
6.326
6.304
6.281
6.258
6.234
6.209
6.184
6.158
6.132
6.107
6.081
6.056
6.031
6.007
6.441
6.44
6.437
6.433
6.428
6.422
6.414
6.405
6.395
6.384
6.371
6.358
6.343
6.328
6.311
6.293
6.275
6.256
6.236
6.215
6.194
6.172
6.15
6.127
6.104
6.081
6.059
6.037
6.015
5.993
5.973
5.954
7.238
7.235
7.231
7.225
7.218
7.209
7.199
7.187
7.173
7.158
7.141
7.122
7.102
7.08
7.056
7.03
7.002
6.972
6.94
6.905
6.868
6.827
6.784
6.737
6.687
6.632
6.572
6.507
6.435
6.358
6.274
6.183
7.216
7.214
7.21
7.204
7.197
7.188
7.177
7.166
7.152
7.137
7.12
7.101
7.081
7.059
7.035
7.01
6.982
6.952
6.92
6.885
6.848
6.808
6.765
6.719
6.669
6.615
6.556
6.493
6.425
6.351
6.271
6.187
7.19
7.187
7.183
7.178
7.171
7.162
7.152
7.14
7.126
7.111
7.095
7.076
7.056
7.034
7.011
6.985
6.957
6.928
6.896
6.862
6.825
6.785
6.743
6.697
6.648
6.595
6.538
6.477
6.412
6.341
6.267
6.189
7.159
7.156
7.152
7.147
7.14
7.131
7.121
7.109
7.096
7.081
7.065
7.046
7.027
7.005
6.982
6.956
6.929
6.9
6.868
6.834
6.798
6.759
6.717
6.672
6.624
6.573
6.518
6.459
6.396
6.33
6.26
6.188
7.122
7.12
7.116
7.111
7.104
7.095
7.085
7.074
7.061
7.046
7.03
7.012
6.992
6.971
6.948
6.923
6.896
6.867
6.836
6.803
6.767
6.729
6.688
6.644
6.597
6.547
6.494
6.438
6.379
6.316
6.251
6.184
7.081
7.079
7.075
7.07
7.063
7.055
7.045
7.033
7.02
7.006
6.99
6.972
6.953
6.932
6.91
6.885
6.859
6.83
6.8
6.767
6.732
6.695
6.655
6.612
6.567
6.519
6.468
6.415
6.359
6.3
6.239
6.178
7.034
7.032
7.028
7.023
7.016
7.008
6.998
6.987
6.975
6.961
6.945
6.928
6.909
6.888
6.866
6.842
6.816
6.788
6.759
6.727
6.693
6.657
6.618
6.577
6.534
6.488
6.439
6.389
6.336
6.281
6.225
6.168
6.981
6.979
6.975
6.97
6.964
6.956
6.946
6.936
6.923
6.909
6.894
6.877
6.859
6.839
6.817
6.794
6.769
6.742
6.713
6.682
6.649
6.614
6.577
6.538
6.497
6.453
6.407
6.359
6.31
6.259
6.207
6.155
6.922
6.92
6.916
6.911
6.905
6.897
6.888
6.877
6.865
6.852
6.837
6.821
6.803
6.783
6.762
6.74
6.716
6.69
6.662
6.632
6.601
6.567
6.532
6.494
6.455
6.414
6.371
6.326
6.28
6.233
6.186
6.139
6.856
6.854
6.85
6.846
6.84
6.832
6.823
6.813
6.801
6.788
6.774
6.758
6.741
6.722
6.701
6.68
6.656
6.631
6.605
6.576
6.546
6.515
6.481
6.446
6.409
6.371
6.331
6.289
6.247
6.204
6.161
6.118
6.783
6.781
6.777
6.773
6.767
6.76
6.751
6.741
6.73
6.717
6.703
6.688
6.671
6.653
6.633
6.612
6.59
6.566
6.541
6.514
6.486
6.456
6.424
6.392
6.357
6.322
6.285
6.247
6.209
6.17
6.131
6.093
6.702
6.7
6.697
6.692
6.687
6.68
6.671
6.662
6.651
6.638
6.625
6.61
6.594
6.576
6.558
6.538
6.516
6.494
6.47
6.444
6.418
6.39
6.361
6.33
6.299
6.266
6.233
6.199
6.165
6.13
6.096
6.062
6.613
6.611
6.608
6.604
6.598
6.592
6.583
6.574
6.563
6.552
6.538
6.524
6.509
6.492
6.474
6.455
6.434
6.413
6.39
6.367
6.342
6.316
6.289
6.261
6.233
6.204
6.174
6.144
6.114
6.083
6.054
6.025
6.517
6.515
6.513
6.509
6.503
6.496
6.489
6.479
6.469
6.457
6.445
6.431
6.416
6.4
6.382
6.364
6.345
6.324
6.303
6.281
6.258
6.234
6.209
6.184
6.159
6.133
6.107
6.081
6.055
6.029
6.005
5.981
6.424
6.423
6.42
6.416
6.411
6.404
6.396
6.387
6.377
6.366
6.353
6.34
6.325
6.309
6.292
6.274
6.256
6.236
6.216
6.195
6.174
6.152
6.129
6.107
6.084
6.061
6.038
6.015
5.993
5.972
5.952
5.932
7.192
7.189
7.185
7.179
7.171
7.162
7.151
7.138
7.123
7.107
7.089
7.069
7.048
7.024
6.999
6.971
6.941
6.909
6.874