/*--------------------------------*- C++ -*----------------------------------*\
  =========                 |
  \\      /  F ield         | OpenFOAM: The Open Source CFD Toolbox
   \\    /   O peration     | Website:  https://openfoam.org
    \\  /    A nd           | Version:  6
     \\/     M anipulation  |
\*---------------------------------------------------------------------------*/
FoamFile
{
    version     2.0;
    format      ascii;
    class       volScalarField;
    location    "5";
    object      Umag;
}
// * * * * * * * * * * * * * * * * * * * * * * * * * * * * * * * * * * * * * //

dimensions      [0 0 0 0 0 0 0];

internalField   nonuniform List<scalar> 
16128
(
3.178e-09
2.67e-08
8.437e-08
1.803e-07
3.158e-07
4.944e-07
7.206e-07
1.001e-06
1.342e-06
1.756e-06
2.256e-06
2.859e-06
3.589e-06
4.476e-06
5.564e-06
6.907e-06
8.586e-06
1.071e-05
1.344e-05
1.7e-05
2.176e-05
2.824e-05
3.732e-05
5.046e-05
7.016e-05
0.000101
0.0001519
0.0002413
0.0004099
0.0007558
0.001536
0.00437
3.253e-09
2.676e-08
8.416e-08
1.797e-07
3.147e-07
4.925e-07
7.177e-07
9.962e-07
1.336e-06
1.747e-06
2.243e-06
2.841e-06
3.564e-06
4.443e-06
5.518e-06
6.844e-06
8.498e-06
1.059e-05
1.326e-05
1.675e-05
2.139e-05
2.77e-05
3.65e-05
4.918e-05
6.81e-05
9.763e-05
0.0001461
0.0002311
0.0003914
0.0007212
0.001475
0.004259
3.352e-09
2.678e-08
8.377e-08
1.786e-07
3.125e-07
4.889e-07
7.12e-07
9.877e-07
1.324e-06
1.73e-06
2.219e-06
2.807e-06
3.518e-06
4.379e-06
5.429e-06
6.721e-06
8.328e-06
1.035e-05
1.293e-05
1.627e-05
2.07e-05
2.667e-05
3.494e-05
4.676e-05
6.422e-05
9.119e-05
0.000135
0.0002112
0.0003543
0.0006502
0.001336
0.003978
3.478e-09
2.676e-08
8.317e-08
1.77e-07
3.094e-07
4.835e-07
7.036e-07
9.752e-07
1.306e-06
1.704e-06
2.183e-06
2.758e-06
3.45e-06
4.285e-06
5.301e-06
6.545e-06
8.084e-06
1.001e-05
1.245e-05
1.559e-05
1.971e-05
2.522e-05
3.277e-05
4.34e-05
5.885e-05
8.226e-05
0.0001195
0.0001826
0.0002983
0.000534
0.001091
0.003255
2.413e-08
8.273e-08
1.903e-07
3.643e-07
6.09e-07
9.31e-07
1.339e-06
1.843e-06
2.457e-06
3.201e-06
4.098e-06
5.179e-06
6.485e-06
8.071e-06
1.001e-05
1.24e-05
1.537e-05
1.912e-05
2.391e-05
3.012e-05
3.834e-05
4.944e-05
6.476e-05
8.65e-05
0.0001183
0.0001662
0.0002414
0.0003641
0.0005731
0.0009457
0.001633
0.003074
2.427e-08
8.286e-08
1.9e-07
3.633e-07
6.07e-07
9.276e-07
1.333e-06
1.835e-06
2.446e-06
3.185e-06
4.075e-06
5.147e-06
6.442e-06
8.012e-06
9.927e-06
1.228e-05
1.521e-05
1.89e-05
2.36e-05
2.969e-05
3.771e-05
4.851e-05
6.338e-05
8.438e-05
0.0001149
0.0001609
0.0002327
0.0003495
0.0005483
0.0009033
0.001563
0.002963
2.441e-08
8.287e-08
1.893e-07
3.613e-07
6.031e-07
9.21e-07
1.323e-06
1.819e-06
2.424e-06
3.153e-06
4.031e-06
5.087e-06
6.358e-06
7.897e-06
9.77e-06
1.207e-05
1.492e-05
1.848e-05
2.301e-05
2.886e-05
3.652e-05
4.676e-05
6.076e-05
8.038e-05
0.0001087
0.0001508
0.000216
0.0003211
0.0004989
0.0008165
0.001412
0.002709
2.459e-08
8.279e-08
1.881e-07
3.583e-07
5.974e-07
9.114e-07
1.308e-06
1.797e-06
2.391e-06
3.108e-06
3.967e-06
4.999e-06
6.237e-06
7.731e-06
9.543e-06
1.176e-05
1.449e-05
1.789e-05
2.218e-05
2.767e-05
3.482e-05
4.429e-05
5.71e-05
7.482e-05
9.999e-05
0.0001369
0.0001928
0.000281
0.000427
0.0006827
0.001159
0.002194
7.448e-08
1.78e-07
3.03e-07
4.936e-07
7.599e-07
1.11e-06
1.553e-06
2.1e-06
2.767e-06
3.572e-06
4.543e-06
5.711e-06
7.12e-06
8.827e-06
1.091e-05
1.346e-05
1.663e-05
2.061e-05
2.567e-05
3.219e-05
4.073e-05
5.215e-05
6.769e-05
8.935e-05
0.0001202
0.0001655
0.0002334
0.0003382
0.0005036
0.0007698
0.001198
0.001906
7.452e-08
1.78e-07
3.024e-07
4.924e-07
7.577e-07
1.106e-06
1.547e-06
2.091e-06
2.754e-06
3.555e-06
4.518e-06
5.677e-06
7.073e-06
8.763e-06
1.082e-05
1.334e-05
1.647e-05
2.038e-05
2.535e-05
3.173e-05
4.009e-05
5.12e-05
6.63e-05
8.725e-05
0.000117
0.0001604
0.0002254
0.0003253
0.0004828
0.0007362
0.001145
0.001827
7.46e-08
1.778e-07
3.015e-07
4.901e-07
7.533e-07
1.099e-06
1.536e-06
2.075e-06
2.73e-06
3.521e-06
4.471e-06
5.612e-06
6.984e-06
8.641e-06
1.065e-05
1.311e-05
1.615e-05
1.994e-05
2.473e-05
3.087e-05
3.885e-05
4.941e-05
6.365e-05
8.327e-05
0.0001109
0.0001509
0.0002102
0.0003005
0.0004419
0.0006688
0.001036
0.001657
7.471e-08
1.776e-07
3.001e-07
4.867e-07
7.469e-07
1.088e-06
1.519e-06
2.05e-06
2.695e-06
3.472e-06
4.402e-06
5.517e-06
6.854e-06
8.463e-06
1.041e-05
1.278e-05
1.57e-05
1.931e-05
2.386e-05
2.964e-05
3.71e-05
4.688e-05
5.995e-05
7.774e-05
0.0001025
0.0001377
0.0001891
0.0002659
0.0003838
0.0005694
0.0008662
0.001361
1.557e-07
3.267e-07
4.668e-07
6.623e-07
9.322e-07
1.286e-06
1.734e-06
2.286e-06
2.958e-06
3.77e-06
4.745e-06
5.917e-06
7.327e-06
9.03e-06
1.11e-05
1.363e-05
1.676e-05
2.066e-05
2.558e-05
3.187e-05
4.004e-05
5.08e-05
6.522e-05
8.492e-05
0.0001123
0.0001511
0.0002072
0.0002893
0.000411
0.0005919
0.0008562
0.001233
1.557e-07
3.266e-07
4.662e-07
6.61e-07
9.298e-07
1.282e-06
1.728e-06
2.277e-06
2.946e-06
3.752e-06
4.721e-06
5.883e-06
7.281e-06
8.967e-06
1.101e-05
1.351e-05
1.66e-05
2.043e-05
2.527e-05
3.144e-05
3.942e-05
4.992e-05
6.394e-05
8.303e-05
0.0001095
0.0001468
0.0002005
0.000279
0.000395
0.0005672
0.0008192
0.00118
1.557e-07
3.263e-07
4.651e-07
6.585e-07
9.253e-07
1.275e-06
1.716e-06
2.26e-06
2.922e-06
3.718e-06
4.673e-06
5.818e-06
7.192e-06
8.846e-06
1.085e-05
1.329e-05
1.629e-05
2.001e-05
2.468e-05
3.061e-05
3.825e-05
4.824e-05
6.151e-05
7.944e-05
0.0001041
0.0001386
0.0001879
0.0002593
0.000364
0.0005186
0.0007447
0.00107
1.557e-07
3.258e-07
4.634e-07
6.548e-07
9.186e-07
1.264e-06
1.7e-06
2.236e-06
2.886e-06
3.668e-06
4.605e-06
5.724e-06
7.063e-06
8.671e-06
1.061e-05
1.296e-05
1.584e-05
1.94e-05
2.383e-05
2.943e-05
3.659e-05
4.587e-05
5.809e-05
7.443e-05
9.664e-05
0.0001273
0.0001705
0.0002319
0.0003205
0.0004492
0.0006345
0.0008972
2.659e-07
5.272e-07
6.86e-07
8.849e-07
1.155e-06
1.509e-06
1.955e-06
2.505e-06
3.173e-06
3.978e-06
4.944e-06
6.102e-06
7.49e-06
9.162e-06
1.118e-05
1.364e-05
1.667e-05
2.041e-05
2.509e-05
3.102e-05
3.862e-05
4.849e-05
6.149e-05
7.885e-05
0.0001024
0.0001347
0.0001795
0.0002422
0.0003301
0.0004522
0.000618
0.0008328
2.659e-07
5.27e-07
6.853e-07
8.834e-07
1.153e-06
1.505e-06
1.949e-06
2.496e-06
3.161e-06
3.961e-06
4.92e-06
6.069e-06
7.446e-06
9.101e-06
1.11e-05
1.353e-05
1.651e-05
2.02e-05
2.48e-05
3.062e-05
3.806e-05
4.769e-05
6.035e-05
7.72e-05
9.996e-05
0.0001311
0.0001742
0.0002342
0.0003182
0.0004347
0.0005926
0.0007976
2.657e-07
5.265e-07
6.839e-07
8.807e-07
1.148e-06
1.497e-06
1.937e-06
2.479e-06
3.137e-06
3.927e-06
4.874e-06
6.006e-06
7.359e-06
8.984e-06
1.094e-05
1.332e-05
1.622e-05
1.98e-05
2.425e-05
2.985e-05
3.698e-05
4.617e-05
5.818e-05
7.407e-05
9.538e-05
0.0001243
0.0001641
0.000219
0.0002953
0.0004005
0.0005426
0.000727
2.655e-07
5.257e-07
6.819e-07
8.767e-07
1.141e-06
1.486e-06
1.92e-06
2.455e-06
3.102e-06
3.879e-06
4.807e-06
5.913e-06
7.234e-06
8.813e-06
1.071e-05
1.3e-05
1.579e-05
1.922e-05
2.345e-05
2.875e-05
3.545e-05
4.403e-05
5.513e-05
6.969e-05
8.901e-05
0.0001149
0.0001501
0.000198
0.0002636
0.0003526
0.0004713
0.0006232
4.035e-07
7.773e-07
9.591e-07
1.162e-06
1.431e-06
1.783e-06
2.226e-06
2.772e-06
3.434e-06
4.229e-06
5.181e-06
6.318e-06
7.677e-06
9.305e-06
1.127e-05
1.364e-05
1.653e-05
2.008e-05
2.449e-05
3e-05
3.698e-05
4.589e-05
5.741e-05
7.247e-05
9.234e-05
0.0001188
0.0001542
0.0002016
0.0002649
0.0003483
0.0004548
0.0005841
4.033e-07
7.769e-07
9.582e-07
1.16e-06
1.429e-06
1.779e-06
2.22e-06
2.763e-06
3.421e-06
4.212e-06
5.157e-06
6.286e-06
7.634e-06
9.247e-06
1.119e-05
1.353e-05
1.639e-05
1.989e-05
2.422e-05
2.964e-05
3.647e-05
4.518e-05
5.642e-05
7.106e-05
9.032e-05
0.0001159
0.00015
0.0001955
0.0002562
0.0003359
0.0004376
0.000561
4.031e-07
7.762e-07
9.566e-07
1.157e-06
1.424e-06
1.771e-06
2.209e-06
2.746e-06
3.398e-06
4.179e-06
5.112e-06
6.224e-06
7.55e-06
9.135e-06
1.104e-05
1.333e-05
1.611e-05
1.951e-05
2.371e-05
2.893e-05
3.55e-05
4.383e-05
5.453e-05
6.838e-05
8.65e-05
0.0001104
0.000142
0.000184
0.0002395
0.000312
0.0004041
0.0005156
4.026e-07
7.749e-07
9.542e-07
1.153e-06
1.416e-06
1.76e-06
2.192e-06
2.722e-06
3.363e-06
4.131e-06
5.047e-06
6.135e-06
7.429e-06
8.972e-06
1.082e-05
1.303e-05
1.571e-05
1.897e-05
2.297e-05
2.793e-05
3.412e-05
4.192e-05
5.185e-05
6.462e-05
8.115e-05
0.0001027
0.000131
0.0001681
0.0002165
0.0002789
0.0003572
0.0004511
5.664e-07
1.073e-06
1.282e-06
1.489e-06
1.758e-06
2.107e-06
2.546e-06
3.086e-06
3.74e-06
4.523e-06
5.458e-06
6.57e-06
7.894e-06
9.474e-06
1.136e-05
1.364e-05
1.639e-05
1.974e-05
2.384e-05
2.892e-05
3.526e-05
4.323e-05
5.334e-05
6.626e-05
8.288e-05
0.0001044
0.0001321
0.000168
0.000214
0.0002717
0.0003421
0.0004236
5.662e-07
1.073e-06
1.281e-06
1.487e-06
1.755e-06
2.103e-06
2.54e-06
3.078e-06
3.728e-06
4.506e-06
5.435e-06
6.539e-06
7.853e-06
9.418e-06
1.129e-05
1.354e-05
1.625e-05
1.956e-05
2.36e-05
2.859e-05
3.481e-05
4.261e-05
5.249e-05
6.507e-05
8.122e-05
0.000102
0.0001289
0.0001635
0.0002076
0.0002629
0.0003303
0.0004083
5.657e-07
1.072e-06
1.279e-06
1.484e-06
1.75e-06
2.095e-06
2.529e-06
3.061e-06
3.704e-06
4.474e-06
5.391e-06
6.48e-06
7.773e-06
9.311e-06
1.115e-05
1.335e-05
1.6e-05
1.921e-05
2.313e-05
2.796e-05
3.394e-05
4.143e-05
5.085e-05
6.281e-05
7.806e-05
9.761e-05
0.0001227
0.0001548
0.0001955
0.0002462
0.0003077
0.0003786
5.65e-07
1.07e-06
1.276e-06
1.479e-06
1.742e-06
2.083e-06
2.512e-06
3.037e-06
3.67e-06
4.428e-06
5.328e-06
6.394e-06
7.658e-06
9.156e-06
1.094e-05
1.307e-05
1.562e-05
1.871e-05
2.246e-05
2.705e-05
3.271e-05
3.974e-05
4.854e-05
5.962e-05
7.364e-05
9.145e-05
0.0001141
0.0001427
0.0001787
0.0002231
0.0002764
0.0003373
7.524e-07
1.411e-06
1.651e-06
1.862e-06
2.13e-06
2.476e-06
2.911e-06
3.443e-06
4.087e-06
4.856e-06
5.771e-06
6.856e-06
8.141e-06
9.667e-06
1.148e-05
1.365e-05
1.625e-05
1.938e-05
2.319e-05
2.784e-05
3.356e-05
4.063e-05
4.944e-05
6.046e-05
7.429e-05
9.169e-05
0.0001135
0.0001408
0.0001745
0.0002152
0.000263
0.0003165
7.521e-07
1.411e-06
1.65e-06
1.86e-06
2.127e-06
2.472e-06
2.905e-06
3.435e-06
4.075e-06
4.84e-06
5.75e-06
6.827e-06
8.102e-06
9.614e-06
1.141e-05
1.355e-05
1.612e-05
1.922e-05
2.297e-05
2.754e-05
3.316e-05
4.009e-05
4.871e-05
5.946e-05
7.294e-05
8.984e-05
0.000111
0.0001374
0.0001698
0.000209
0.0002549
0.0003062
7.515e-07
1.409e-06
1.647e-06
1.856e-06
2.121e-06
2.464e-06
2.893e-06
3.419e-06
4.052e-06
4.809e-06
5.707e-06
6.77e-06
8.026e-06
9.513e-06
1.128e-05
1.338e-05
1.589e-05
1.89e-05
2.255e-05
2.698e-05
3.24e-05
3.906e-05
4.731e-05
5.757e-05
7.035e-05
8.631e-05
0.0001062
0.0001308
0.000161
0.0001972
0.0002394
0.0002865
7.505e-07
1.407e-06
1.644e-06
1.851e-06
2.113e-06
2.452e-06
2.876e-06
3.395e-06
4.019e-06
4.764e-06
5.646e-06
6.688e-06
7.916e-06
9.367e-06
1.108e-05
1.312e-05
1.554e-05
1.844e-05
2.194e-05
2.616e-05
3.13e-05
3.76e-05
4.533e-05
5.489e-05
6.672e-05
8.137e-05
9.948e-05
0.0001217
0.0001487
0.0001809
0.0002181
0.0002593
9.591e-07
1.786e-06
2.06e-06
2.276e-06
2.542e-06
2.885e-06
3.314e-06
3.838e-06
4.471e-06
5.224e-06
6.117e-06
7.171e-06
8.415e-06
9.882e-06
1.162e-05
1.367e-05
1.612e-05
1.904e-05
2.255e-05
2.678e-05
3.192e-05
3.817e-05
4.581e-05
5.518e-05
6.668e-05
8.079e-05
9.803e-05
0.0001189
0.0001439
0.0001732
0.0002066
0.000243
9.586e-07
1.786e-06
2.059e-06
2.274e-06
2.539e-06
2.88e-06
3.308e-06
3.83e-06
4.459e-06
5.209e-06
6.096e-06
7.144e-06
8.378e-06
9.833e-06
1.155e-05
1.359e-05
1.601e-05
1.889e-05
2.235e-05
2.652e-05
3.157e-05
3.771e-05
4.519e-05
5.436e-05
6.558e-05
7.932e-05
9.607e-05
0.0001163
0.0001405
0.0001688
0.0002009
0.000236
9.578e-07
1.784e-06
2.056e-06
2.27e-06
2.534e-06
2.872e-06
3.296e-06
3.814e-06
4.437e-06
5.179e-06
6.056e-06
7.09e-06
8.306e-06
9.738e-06
1.143e-05
1.342e-05
1.579e-05
1.86e-05
2.197e-05
2.602e-05
3.09e-05
3.682e-05
4.401e-05
5.278e-05
6.347e-05
7.651e-05
9.233e-05
0.0001114
0.000134
0.0001604
0.0001902
0.0002226
9.566e-07
1.781e-06
2.052e-06
2.264e-06
2.525e-06
2.86e-06
3.279e-06
3.79e-06
4.405e-06
5.135e-06
5.997e-06
7.011e-06
8.202e-06
9.6e-06
1.124e-05
1.318e-05
1.547e-05
1.819e-05
2.142e-05
2.529e-05
2.994e-05
3.555e-05
4.233e-05
5.054e-05
6.05e-05
7.256e-05
8.709e-05
0.0001045
0.0001249
0.0001486
0.0001753
0.0002041
1.184e-06
2.194e-06
2.504e-06
2.725e-06
2.989e-06
3.327e-06
3.75e-06
4.265e-06
4.885e-06
5.621e-06
6.49e-06
7.512e-06
8.71e-06
1.012e-05
1.177e-05
1.371e-05
1.601e-05
1.872e-05
2.194e-05
2.578e-05
3.038e-05
3.589e-05
4.251e-05
5.047e-05
6.005e-05
7.153e-05
8.522e-05
0.0001014
0.0001202
0.0001417
0.0001656
0.0001911
1.183e-06
2.193e-06
2.503e-06
2.723e-06
2.986e-06
3.323e-06
3.744e-06
4.257e-06
4.874e-06
5.606e-06
6.47e-06
7.485e-06
8.676e-06
1.007e-05
1.171e-05
1.363e-05
1.59e-05
1.859e-05
2.177e-05
2.555e-05
3.008e-05
3.549e-05
4.199e-05
4.979e-05
5.915e-05
7.036e-05
8.369e-05
9.941e-05
0.0001177
0.0001385
0.0001616
0.0001863
1.182e-06
2.191e-06
2.5e-06
2.719e-06
2.98e-06
3.315e-06
3.732e-06
4.241e-06
4.852e-06
5.577e-06
6.432e-06
7.434e-06
8.609e-06
9.983e-06
1.159e-05
1.348e-05
1.57e-05
1.833e-05
2.143e-05
2.511e-05
2.949e-05
3.473e-05
4.099e-05
4.848e-05
5.744e-05
6.812e-05
8.078e-05
9.565e-05
0.0001129
0.0001324
0.000154
0.000177
1.181e-06
2.188e-06
2.496e-06
2.712e-06
2.972e-06
3.303e-06
3.715e-06
4.218e-06
4.821e-06
5.535e-06
6.375e-06
7.36e-06
8.511e-06
9.855e-06
1.142e-05
1.326e-05
1.542e-05
1.795e-05
2.094e-05
2.447e-05
2.866e-05
3.364e-05
3.956e-05
4.662e-05
5.501e-05
6.496e-05
7.668e-05
9.037e-05
0.0001061
0.0001239
0.0001434
0.0001642
1.423e-06
2.629e-06
2.978e-06
3.204e-06
3.466e-06
3.799e-06
4.214e-06
4.719e-06
5.324e-06
6.041e-06
6.885e-06
7.872e-06
9.024e-06
1.037e-05
1.194e-05
1.377e-05
1.591e-05
1.843e-05
2.138e-05
2.485e-05
2.896e-05
3.381e-05
3.954e-05
4.632e-05
5.432e-05
6.371e-05
7.467e-05
8.733e-05
0.0001017
0.0001178
0.0001353
0.0001537
1.423e-06
2.628e-06
2.977e-06
3.202e-06
3.463e-06
3.795e-06
4.208e-06
4.711e-06
5.314e-06
6.027e-06
6.866e-06
7.847e-06
8.992e-06
1.033e-05
1.188e-05
1.37e-05
1.582e-05
1.831e-05
2.122e-05
2.465e-05
2.87e-05
3.347e-05
3.911e-05
4.576e-05
5.359e-05
6.278e-05
7.348e-05
8.582e-05
9.984e-05
0.0001155
0.0001324
0.0001503
1.421e-06
2.625e-06
2.974e-06
3.197e-06
3.457e-06
3.786e-06
4.196e-06
4.696e-06
5.293e-06
6e-06
6.829e-06
7.799e-06
8.929e-06
1.024e-05
1.178e-05
1.356e-05
1.564e-05
1.807e-05
2.092e-05
2.426e-05
2.819e-05
3.282e-05
3.827e-05
4.468e-05
5.22e-05
6.1e-05
7.121e-05
8.294e-05
9.622e-05
0.000111
0.000127
0.0001438
1.42e-06
2.622e-06
2.969e-06
3.191e-06
3.448e-06
3.774e-06
4.18e-06
4.673e-06
5.262e-06
5.959e-06
6.776e-06
7.729e-06
8.838e-06
1.013e-05
1.162e-05
1.336e-05
1.538e-05
1.774e-05
2.049e-05
2.37e-05
2.747e-05
3.189e-05
3.707e-05
4.313e-05
5.022e-05
5.846e-05
6.799e-05
7.887e-05
9.114e-05
0.0001047
0.0001193
0.0001346
1.675e-06
3.086e-06
3.477e-06
3.707e-06
3.966e-06
4.293e-06
4.7e-06
5.193e-06
5.784e-06
6.48e-06
7.296e-06
8.248e-06
9.353e-06
1.063e-05
1.212e-05
1.384e-05
1.584e-05
1.816e-05
2.086e-05
2.401e-05
2.767e-05
3.194e-05
3.691e-05
4.27e-05
4.941e-05
5.714e-05
6.6e-05
7.602e-05
8.72e-05
9.946e-05
0.0001126
0.0001262
1.675e-06
3.085e-06
3.475e-06
3.704e-06
3.963e-06
4.289e-06
4.694e-06
5.186e-06
5.773e-06
6.467e-06
7.279e-06
8.224e-06
9.323e-06
1.06e-05
1.207e-05
1.378e-05
1.576e-05
1.806e-05
2.072e-05
2.383e-05
2.744e-05
3.165e-05
3.655e-05
4.224e-05
4.882e-05
5.64e-05
6.506e-05
7.486e-05
8.577e-05
9.771e-05
0.0001105
0.0001237
1.673e-06
3.082e-06
3.471e-06
3.7e-06
3.956e-06
4.28e-06
4.682e-06
5.171e-06
5.753e-06
6.44e-06
7.244e-06
8.179e-06
9.264e-06
1.052e-05
1.197e-05
1.365e-05
1.56e-05
1.785e-05
2.046e-05
2.349e-05
2.701e-05
3.11e-05
3.584e-05
4.134e-05
4.769e-05
5.497e-05
6.328e-05
7.263e-05
8.303e-05
9.438e-05
0.0001065
0.000119
1.671e-06
3.078e-06
3.466e-06
3.693e-06
3.947e-06
4.268e-06
4.666e-06
5.149e-06
5.724e-06
6.402e-06
7.194e-06
8.114e-06
9.179e-06
1.041e-05
1.183e-05
1.347e-05
1.536e-05
1.755e-05
2.008e-05
2.3e-05
2.639e-05
3.03e-05
3.483e-05
4.006e-05
4.607e-05
5.294e-05
6.073e-05
6.948e-05
7.916e-05
8.969e-05
0.0001009
0.0001124
1.937e-06
3.561e-06
3.993e-06
4.228e-06
4.484e-06
4.804e-06
5.202e-06
5.683e-06
6.257e-06
6.932e-06
7.72e-06
8.634e-06
9.691e-06
1.091e-05
1.231e-05
1.393e-05
1.579e-05
1.793e-05
2.04e-05
2.324e-05
2.651e-05
3.028e-05
3.46e-05
3.956e-05
4.522e-05
5.163e-05
5.885e-05
6.688e-05
7.57e-05
8.519e-05
9.52e-05
0.0001055
1.936e-06
3.559e-06
3.991e-06
4.226e-06
4.481e-06
4.8e-06
5.196e-06
5.676e-06
6.247e-06
6.919e-06
7.703e-06
8.613e-06
9.663e-06
1.087e-05
1.227e-05
1.387e-05
1.572e-05
1.784e-05
2.028e-05
2.309e-05
2.632e-05
3.003e-05
3.43e-05
3.918e-05
4.474e-05
5.104e-05
5.812e-05
6.598e-05
7.46e-05
8.388e-05
9.365e-05
0.0001037
1.935e-06
3.556e-06
3.987e-06
4.221e-06
4.474e-06
4.792e-06
5.185e-06
5.661e-06
6.228e-06
6.894e-06
7.671e-06
8.571e-06
9.609e-06
1.081e-05
1.218e-05
1.376e-05
1.557e-05
1.765e-05
2.005e-05
2.279e-05
2.595e-05
2.956e-05
3.371e-05
3.844e-05
4.382e-05
4.989e-05
5.67e-05
6.425e-05
7.251e-05
8.137e-05
9.069e-05
0.0001002
1.933e-06
3.552e-06
3.982e-06
4.214e-06
4.465e-06
4.779e-06
5.169e-06
5.64e-06
6.2e-06
6.858e-06
7.624e-06
8.51e-06
9.531e-06
1.07e-05
1.205e-05
1.359e-05
1.536e-05
1.739e-05
1.971e-05
2.237e-05
2.541e-05
2.889e-05
3.286e-05
3.738e-05
4.249e-05
4.825e-05
5.469e-05
6.179e-05
6.953e-05
7.782e-05
8.65e-05
9.537e-05
2.206e-06
4.048e-06
4.523e-06
4.763e-06
5.014e-06
5.328e-06
5.715e-06
6.183e-06
6.74e-06
7.392e-06
8.151e-06
9.028e-06
1.004e-05
1.119e-05
1.252e-05
1.403e-05
1.576e-05
1.774e-05
1.999e-05
2.256e-05
2.548e-05
2.881e-05
3.258e-05
3.685e-05
4.165e-05
4.701e-05
5.295e-05
5.946e-05
6.65e-05
7.398e-05
8.177e-05
8.967e-05
2.205e-06
4.046e-06
4.521e-06
4.76e-06
5.011e-06
5.323e-06
5.71e-06
6.176e-06
6.73e-06
7.38e-06
8.136e-06
9.008e-06
1.001e-05
1.116e-05
1.248e-05
1.398e-05
1.569e-05
1.765e-05
1.988e-05
2.242e-05
2.532e-05
2.86e-05
3.233e-05
3.653e-05
4.126e-05
4.653e-05
5.237e-05
5.876e-05
6.566e-05
7.299e-05
8.06e-05
8.834e-05
2.203e-06
4.043e-06
4.517e-06
4.755e-06
5.005e-06
5.315e-06
5.699e-06
6.162e-06
6.712e-06
7.357e-06
8.105e-06
8.969e-06
9.961e-06
1.11e-05
1.24e-05
1.388e-05
1.557e-05
1.749e-05
1.968e-05
2.217e-05
2.5e-05
2.82e-05
3.183e-05
3.592e-05
4.05e-05
4.561e-05
5.125e-05
5.741e-05
6.404e-05
7.107e-05
7.838e-05
8.578e-05
2.201e-06
4.038e-06
4.511e-06
4.748e-06
4.995e-06
5.303e-06
5.683e-06
6.141e-06
6.685e-06
7.322e-06
8.061e-06
8.912e-06
9.889e-06
1.101e-05
1.228e-05
1.373e-05
1.538e-05
1.725e-05
1.938e-05
2.18e-05
2.454e-05
2.763e-05
3.112e-05
3.504e-05
3.942e-05
4.429e-05
4.964e-05
5.547e-05
6.174e-05
6.836e-05
7.521e-05
8.214e-05
2.479e-06
4.542e-06
5.061e-06
5.305e-06
5.552e-06
5.858e-06
6.234e-06
6.689e-06
7.227e-06
7.857e-06
8.586e-06
9.425e-06
1.039e-05
1.148e-05
1.273e-05
1.415e-05
1.575e-05
1.757e-05
1.963e-05
2.195e-05
2.457e-05
2.752e-05
3.082e-05
3.451e-05
3.861e-05
4.313e-05
4.806e-05
5.34e-05
5.91e-05
6.508e-05
7.124e-05
7.743e-05
2.478e-06
4.541e-06
5.059e-06
5.302e-06
5.549e-06
5.854e-06
6.229e-06
6.682e-06
7.218e-06
7.845e-06
8.571e-06
9.406e-06
1.036e-05
1.145e-05
1.269e-05
1.41e-05
1.569e-05
1.75e-05
1.954e-05
2.184e-05
2.443e-05
2.734e-05
3.061e-05
3.425e-05
3.829e-05
4.274e-05
4.76e-05
5.285e-05
5.844e-05
6.431e-05
7.035e-05
7.643e-05
2.476e-06
4.537e-06
5.055e-06
5.297e-06
5.543e-06
5.845e-06
6.219e-06
6.668e-06
7.201e-06
7.823e-06
8.543e-06
9.37e-06
1.032e-05
1.139e-05
1.262e-05
1.401e-05
1.558e-05
1.735e-05
1.936e-05
2.162e-05
2.416e-05
2.701e-05
3.019e-05
3.374e-05
3.767e-05
4.199e-05
4.67e-05
5.178e-05
5.718e-05
6.284e-05
6.866e-05
7.45e-05
2.473e-06
4.532e-06
5.049e-06
5.289e-06
5.533e-06
5.833e-06
6.203e-06
6.649e-06
7.175e-06
7.79e-06
8.501e-06
9.318e-06
1.025e-05
1.131e-05
1.251e-05
1.387e-05
1.541e-05
1.715e-05
1.91e-05
2.13e-05
2.376e-05
2.652e-05
2.96e-05
3.301e-05
3.678e-05
4.092e-05
4.542e-05
5.025e-05
5.538e-05
6.074e-05
6.623e-05
7.174e-05
2.753e-06
5.04e-06
5.602e-06
5.85e-06
6.093e-06
6.39e-06
6.755e-06
7.195e-06
7.715e-06
8.32e-06
9.02e-06
9.821e-06
1.073e-05
1.177e-05
1.294e-05
1.427e-05
1.576e-05
1.744e-05
1.932e-05
2.142e-05
2.377e-05
2.639e-05
2.93e-05
3.25e-05
3.602e-05
3.986e-05
4.4e-05
4.842e-05
5.309e-05
5.794e-05
6.288e-05
6.782e-05
2.752e-06
5.038e-06
5.6e-06
5.847e-06
6.089e-06
6.386e-06
6.75e-06
7.188e-06
7.706e-06
8.31e-06
9.006e-06
9.804e-06
1.071e-05
1.174e-05
1.291e-05
1.423e-05
1.571e-05
1.737e-05
1.924e-05
2.132e-05
2.365e-05
2.624e-05
2.912e-05
3.228e-05
3.576e-05
3.954e-05
4.363e-05
4.798e-05
5.258e-05
5.734e-05
6.22e-05
6.705e-05
2.751e-06
5.035e-06
5.596e-06
5.842e-06
6.083e-06
6.378e-06
6.74e-06
7.175e-06
7.69e-06
8.289e-06
8.98e-06
9.771e-06
1.067e-05
1.169e-05
1.285e-05
1.415e-05
1.561e-05
1.725e-05
1.908e-05
2.113e-05
2.342e-05
2.596e-05
2.877e-05
3.186e-05
3.525e-05
3.894e-05
4.291e-05
4.714e-05
5.159e-05
5.62e-05
6.09e-05
6.558e-05
2.748e-06
5.03e-06
5.59e-06
5.835e-06
6.074e-06
6.366e-06
6.725e-06
7.157e-06
7.666e-06
8.258e-06
8.941e-06
9.722e-06
1.061e-05
1.162e-05
1.275e-05
1.403e-05
1.546e-05
1.706e-05
1.886e-05
2.086e-05
2.308e-05
2.554e-05
2.827e-05
3.126e-05
3.452e-05
3.806e-05
4.187e-05
4.592e-05
5.017e-05
5.456e-05
5.902e-05
6.347e-05
3.028e-06
5.537e-06
6.143e-06
6.394e-06
6.631e-06
6.92e-06
7.273e-06
7.698e-06
8.198e-06
8.78e-06
9.449e-06
1.021e-05
1.108e-05
1.206e-05
1.316e-05
1.44e-05
1.578e-05
1.733e-05
1.905e-05
2.096e-05
2.308e-05
2.541e-05
2.797e-05
3.077e-05
3.382e-05
3.71e-05
4.06e-05
4.431e-05
4.818e-05
5.216e-05
5.618e-05
6.017e-05
3.027e-06
5.535e-06
6.14e-06
6.391e-06
6.628e-06
6.916e-06
7.268e-06
7.692e-06
8.19e-06
8.77e-06
9.437e-06
1.02e-05
1.106e-05
1.204e-05
1.313e-05
1.436e-05
1.574e-05
1.727e-05
1.898e-05
2.088e-05
2.297e-05
2.528e-05
2.782e-05
3.059e-05
3.36e-05
3.684e-05
4.03e-05
4.396e-05
4.777e-05
5.169e-05
5.565e-05
5.958e-05
3.025e-06
5.532e-06
6.136e-06
6.386e-06
6.622e-06
6.908e-06
7.259e-06
7.679e-06
8.175e-06
8.751e-06
9.412e-06
1.017e-05
1.102e-05
1.199e-05
1.307e-05
1.429e-05
1.565e-05
1.716e-05
1.885e-05
2.071e-05
2.277e-05
2.504e-05
2.753e-05
3.024e-05
3.318e-05
3.635e-05
3.972e-05
4.328e-05
4.699e-05
5.079e-05
5.464e-05
5.844e-05
3.022e-06
5.527e-06
6.13e-06
6.378e-06
6.612e-06
6.896e-06
7.244e-06
7.661e-06
8.152e-06
8.722e-06
9.377e-06
1.012e-05
1.097e-05
1.192e-05
1.299e-05
1.418e-05
1.552e-05
1.7e-05
1.865e-05
2.047e-05
2.248e-05
2.469e-05
2.711e-05
2.974e-05
3.258e-05
3.563e-05
3.888e-05
4.23e-05
4.586e-05
4.95e-05
5.318e-05
5.681e-05
3.3e-06
6.03e-06
6.677e-06
6.932e-06
7.164e-06
7.443e-06
7.785e-06
8.194e-06
8.675e-06
9.232e-06
9.872e-06
1.06e-05
1.142e-05
1.235e-05
1.338e-05
1.454e-05
1.582e-05
1.725e-05
1.882e-05
2.056e-05
2.247e-05
2.455e-05
2.682e-05
2.928e-05
3.193e-05
3.476e-05
3.775e-05
4.088e-05
4.413e-05
4.743e-05
5.075e-05
5.402e-05
3.299e-06
6.028e-06
6.675e-06
6.929e-06
7.161e-06
7.439e-06
7.78e-06
8.188e-06
8.667e-06
9.223e-06
9.86e-06
1.058e-05
1.14e-05
1.232e-05
1.335e-05
1.45e-05
1.578e-05
1.72e-05
1.876e-05
2.049e-05
2.238e-05
2.445e-05
2.67e-05
2.913e-05
3.175e-05
3.455e-05
3.751e-05
4.06e-05
4.38e-05
4.707e-05
5.034e-05
5.356e-05
3.297e-06
6.024e-06
6.671e-06
6.924e-06
7.155e-06
7.432e-06
7.771e-06
8.176e-06
8.653e-06
9.205e-06
9.838e-06
1.056e-05
1.137e-05
1.228e-05
1.33e-05
1.444e-05
1.57e-05
1.71e-05
1.865e-05
2.035e-05
2.221e-05
2.424e-05
2.645e-05
2.884e-05
3.141e-05
3.415e-05
3.704e-05
4.006e-05
4.318e-05
4.636e-05
4.954e-05
5.268e-05
3.294e-06
6.019e-06
6.664e-06
6.917e-06
7.146e-06
7.421e-06
7.757e-06
8.159e-06
8.632e-06
9.179e-06
9.805e-06
1.052e-05
1.132e-05
1.222e-05
1.323e-05
1.435e-05
1.559e-05
1.696e-05
1.848e-05
2.014e-05
2.196e-05
2.395e-05
2.61e-05
2.842e-05
3.091e-05
3.356e-05
3.636e-05
3.927e-05
4.228e-05
4.534e-05
4.84e-05
5.14e-05
3.568e-06
6.514e-06
7.203e-06
7.461e-06
7.687e-06
7.957e-06
8.286e-06
8.68e-06
9.141e-06
9.675e-06
1.028e-05
1.098e-05
1.175e-05
1.263e-05
1.36e-05
1.468e-05
1.587e-05
1.719e-05
1.863e-05
2.021e-05
2.194e-05
2.381e-05
2.583e-05
2.8e-05
3.032e-05
3.277e-05
3.535e-05
3.802e-05
4.077e-05
4.355e-05
4.632e-05
4.903e-05
3.567e-06
6.512e-06
7.201e-06
7.458e-06
7.684e-06
7.953e-06
8.282e-06
8.674e-06
9.134e-06
9.666e-06
1.027e-05
1.096e-05
1.174e-05
1.261e-05
1.357e-05
1.465e-05
1.584e-05
1.714e-05
1.858e-05
2.015e-05
2.186e-05
2.372e-05
2.573e-05
2.788e-05
3.017e-05
3.26e-05
3.515e-05
3.78e-05
4.051e-05
4.326e-05
4.599e-05
4.867e-05
3.565e-06
6.509e-06
7.197e-06
7.453e-06
7.678e-06
7.946e-06
8.273e-06
8.663e-06
9.121e-06
9.649e-06
1.025e-05
1.094e-05
1.171e-05
1.257e-05
1.353e-05
1.459e-05
1.577e-05
1.706e-05
1.848e-05
2.003e-05
2.172e-05
2.355e-05
2.552e-05
2.764e-05
2.989e-05
3.227e-05
3.477e-05
3.736e-05
4.001e-05
4.269e-05
4.536e-05
4.797e-05
3.562e-06
6.503e-06
7.191e-06
7.446e-06
7.669e-06
7.935e-06
8.26e-06
8.647e-06
9.101e-06
9.625e-06
1.022e-05
1.09e-05
1.166e-05
1.251e-05
1.346e-05
1.451e-05
1.567e-05
1.694e-05
1.833e-05
1.985e-05
2.151e-05
2.33e-05
2.522e-05
2.728e-05
2.948e-05
3.179e-05
3.421e-05
3.672e-05
3.929e-05
4.188e-05
4.445e-05
4.697e-05
3.829e-06
6.988e-06
7.717e-06
7.977e-06
8.198e-06
8.458e-06
8.775e-06
9.152e-06
9.594e-06
1.01e-05
1.069e-05
1.134e-05
1.208e-05
1.29e-05
1.381e-05
1.482e-05
1.593e-05
1.715e-05
1.847e-05
1.992e-05
2.148e-05
2.317e-05
2.497e-05
2.69e-05
2.894e-05
3.108e-05
3.332e-05
3.562e-05
3.797e-05
4.033e-05
4.266e-05
4.494e-05
3.828e-06
6.986e-06
7.715e-06
7.975e-06
8.195e-06
8.454e-06
8.77e-06
9.147e-06
9.588e-06
1.01e-05
1.068e-05
1.133e-05
1.206e-05
1.288e-05
1.379e-05
1.48e-05
1.59e-05
1.711e-05
1.843e-05
1.986e-05
2.142e-05
2.309e-05
2.488e-05
2.68e-05
2.882e-05
3.094e-05
3.315e-05
3.543e-05
3.776e-05
4.009e-05
4.24e-05
4.465e-05
3.826e-06
6.982e-06
7.711e-06
7.97e-06
8.189e-06
8.448e-06
8.762e-06
9.137e-06
9.575e-06
1.008e-05
1.066e-05
1.131e-05
1.204e-05
1.285e-05
1.375e-05
1.474e-05
1.584e-05
1.703e-05
1.834e-05
1.976e-05
2.129e-05
2.294e-05
2.471e-05
2.659e-05
2.858e-05
3.067e-05
3.284e-05
3.508e-05
3.735e-05
3.964e-05
4.19e-05
4.41e-05
3.824e-06
6.977e-06
7.705e-06
7.963e-06
8.18e-06
8.437e-06
8.75e-06
9.122e-06
9.557e-06
1.006e-05
1.063e-05
1.127e-05
1.2e-05
1.28e-05
1.369e-05
1.467e-05
1.575e-05
1.693e-05
1.821e-05
1.961e-05
2.111e-05
2.273e-05
2.446e-05
2.63e-05
2.824e-05
3.028e-05
3.239e-05
3.456e-05
3.677e-05
3.899e-05
4.118e-05
4.331e-05
3.617e-09
2.671e-08
8.237e-08
1.749e-07
3.053e-07
4.766e-07
6.928e-07
9.592e-07
1.282e-06
1.671e-06
2.137e-06
2.695e-06
3.363e-06
4.167e-06
5.139e-06
6.322e-06
7.777e-06
9.584e-06
1.186e-05
1.475e-05
1.851e-05
2.347e-05
3.016e-05
3.94e-05
5.253e-05
7.183e-05
0.0001013
0.0001486
0.0002286
0.0003734
0.0006523
0.001315
3.754e-09
2.659e-08
8.137e-08
1.723e-07
3.003e-07
4.684e-07
6.8e-07
9.401e-07
1.255e-06
1.633e-06
2.083e-06
2.621e-06
3.261e-06
4.028e-06
4.949e-06
6.063e-06
7.422e-06
9.095e-06
1.118e-05
1.38e-05
1.716e-05
2.153e-05
2.731e-05
3.512e-05
4.593e-05
6.128e-05
8.373e-05
0.0001177
0.0001708
0.000257
0.0003999
0.0006454
3.87e-09
2.64e-08
8.017e-08
1.693e-07
2.947e-07
4.59e-07
6.655e-07
9.186e-07
1.224e-06
1.589e-06
2.023e-06
2.538e-06
3.148e-06
3.874e-06
4.739e-06
5.778e-06
7.033e-06
8.563e-06
1.044e-05
1.279e-05
1.574e-05
1.95e-05
2.439e-05
3.085e-05
3.952e-05
5.14e-05
6.804e-05
9.181e-05
0.0001265
0.0001778
0.0002541
0.0003658
3.949e-09
2.611e-08
7.879e-08
1.66e-07
2.886e-07
4.488e-07
6.497e-07
8.953e-07
1.191e-06
1.542e-06
1.958e-06
2.449e-06
3.027e-06
3.709e-06
4.517e-06
5.477e-06
6.626e-06
8.009e-06
9.689e-06
1.175e-05
1.43e-05
1.75e-05
2.156e-05
2.679e-05
3.361e-05
4.263e-05
5.474e-05
7.119e-05
9.373e-05
0.0001247
0.0001666
0.0002215
3.98e-09
2.572e-08
7.726e-08
1.625e-07
2.82e-07
4.38e-07
6.331e-07
8.708e-07
1.156e-06
1.493e-06
1.891e-06
2.356e-06
2.902e-06
3.54e-06
4.29e-06
5.171e-06
6.214e-06
7.454e-06
8.939e-06
1.073e-05
1.291e-05
1.559e-05
1.891e-05
2.308e-05
2.836e-05
3.511e-05
4.381e-05
5.511e-05
6.977e-05
8.868e-05
0.0001126
0.0001415
3.955e-09
2.524e-08
7.56e-08
1.588e-07
2.753e-07
4.27e-07
6.162e-07
8.461e-07
1.12e-06
1.444e-06
1.823e-06
2.264e-06
2.777e-06
3.372e-06
4.064e-06
4.869e-06
5.81e-06
6.914e-06
8.215e-06
9.758e-06
1.16e-05
1.382e-05
1.65e-05
1.978e-05
2.38e-05
2.879e-05
3.498e-05
4.269e-05
5.223e-05
6.392e-05
7.79e-05
9.391e-05
3.876e-09
2.468e-08
7.388e-08
1.551e-07
2.686e-07
4.16e-07
5.995e-07
8.216e-07
1.086e-06
1.395e-06
1.756e-06
2.173e-06
2.655e-06
3.209e-06
3.846e-06
4.58e-06
5.425e-06
6.403e-06
7.537e-06
8.856e-06
1.04e-05
1.221e-05
1.436e-05
1.69e-05
1.994e-05
2.358e-05
2.793e-05
3.314e-05
3.933e-05
4.658e-05
5.486e-05
6.397e-05
3.748e-09
2.406e-08
7.215e-08
1.514e-07
2.621e-07
4.055e-07
5.834e-07
7.981e-07
1.052e-06
1.349e-06
1.693e-06
2.088e-06
2.539e-06
3.055e-06
3.642e-06
4.309e-06
5.068e-06
5.932e-06
6.917e-06
8.041e-06
9.327e-06
1.08e-05
1.25e-05
1.446e-05
1.672e-05
1.933e-05
2.235e-05
2.582e-05
2.978e-05
3.423e-05
3.912e-05
4.429e-05
3.583e-09
2.341e-08
7.047e-08
1.48e-07
2.56e-07
3.956e-07
5.685e-07
7.763e-07
1.021e-06
1.306e-06
1.634e-06
2.008e-06
2.434e-06
2.914e-06
3.456e-06
4.064e-06
4.747e-06
5.511e-06
6.366e-06
7.323e-06
8.392e-06
9.586e-06
1.092e-05
1.241e-05
1.407e-05
1.592e-05
1.796e-05
2.022e-05
2.269e-05
2.533e-05
2.812e-05
3.096e-05
3.399e-09
2.277e-08
6.891e-08
1.448e-07
2.504e-07
3.867e-07
5.549e-07
7.566e-07
9.935e-07
1.268e-06
1.582e-06
1.938e-06
2.339e-06
2.789e-06
3.291e-06
3.848e-06
4.465e-06
5.144e-06
5.891e-06
6.707e-06
7.597e-06
8.564e-06
9.609e-06
1.073e-05
1.194e-05
1.322e-05
1.456e-05
1.597e-05
1.742e-05
1.889e-05
2.035e-05
2.175e-05
3.216e-09
2.22e-08
6.754e-08
1.42e-07
2.455e-07
3.788e-07
5.43e-07
7.392e-07
9.69e-07
1.234e-06
1.536e-06
1.876e-06
2.258e-06
2.682e-06
3.15e-06
3.664e-06
4.226e-06
4.835e-06
5.492e-06
6.195e-06
6.943e-06
7.73e-06
8.551e-06
9.398e-06
1.026e-05
1.112e-05
1.197e-05
1.279e-05
1.355e-05
1.424e-05
1.485e-05
1.534e-05
3.051e-09
2.168e-08
6.625e-08
1.394e-07
2.407e-07
3.712e-07
5.315e-07
7.227e-07
9.46e-07
1.203e-06
1.494e-06
1.821e-06
2.185e-06
2.586e-06
3.027e-06
3.505e-06
4.022e-06
4.574e-06
5.16e-06
5.775e-06
6.411e-06
7.061e-06
7.713e-06
8.354e-06
8.967e-06
9.533e-06
1.003e-05
1.045e-05
1.075e-05
1.094e-05
1.099e-05
1.091e-05
2.901e-09
2.104e-08
6.435e-08
1.352e-07
2.334e-07
3.595e-07
5.143e-07
6.987e-07
9.135e-07
1.16e-06
1.438e-06
1.75e-06
2.095e-06
2.474e-06
2.887e-06
3.332e-06
3.808e-06
4.311e-06
4.837e-06
5.379e-06
5.928e-06
6.472e-06
6.999e-06
7.491e-06
7.929e-06