/*--------------------------------*- C++ -*----------------------------------*\
  =========                 |
  \\      /  F ield         | OpenFOAM: The Open Source CFD Toolbox
   \\    /   O peration     | Website:  https://openfoam.org
    \\  /    A nd           | Version:  6
     \\/     M anipulation  |
\*---------------------------------------------------------------------------*/
FoamFile
{
    version     2.0;
    format      ascii;
    class       volScalarField;
    location    "15";
    object      T;
}
// * * * * * * * * * * * * * * * * * * * * * * * * * * * * * * * * * * * * * //

dimensions      [0 0 0 1 0 0 0];

internalField   nonuniform List<scalar> 
16128
(
4.608
4.6
4.585
4.564
4.536
4.503
4.463
4.419
4.369
4.314
4.255
4.192
4.126
4.057
3.985
3.911
3.835
3.758
3.681
3.604
3.527
3.452
3.377
3.305
3.235
3.167
3.102
3.041
2.983
2.929
2.88
2.835
4.609
4.6
4.585
4.564
4.537
4.503
4.464
4.42
4.37
4.316
4.257
4.194
4.128
4.059
3.987
3.914
3.838
3.762
3.685
3.608
3.532
3.457
3.382
3.31
3.24
3.173
3.108
3.047
2.99
2.936
2.887
2.842
4.609
4.601
4.586
4.565
4.538
4.505
4.466
4.422
4.373
4.319
4.26
4.198
4.133
4.064
3.993
3.92
3.845
3.769
3.693
3.617
3.541
3.466
3.393
3.321
3.251
3.184
3.12
3.06
3.003
2.949
2.9
2.856
4.61
4.602
4.587
4.566
4.539
4.506
4.468
4.425
4.376
4.323
4.265
4.204
4.139
4.071
4.001
3.929
3.855
3.78
3.705
3.629
3.554
3.48
3.408
3.337
3.268
3.202
3.138
3.078
3.022
2.969
2.921
2.876
4.552
4.544
4.528
4.506
4.477
4.443
4.402
4.356
4.304
4.248
4.187
4.122
4.053
3.982
3.907
3.831
3.754
3.675
3.596
3.517
3.438
3.361
3.285
3.211
3.14
3.071
3.006
2.944
2.885
2.831
2.781
2.735
4.553
4.544
4.528
4.506
4.478
4.443
4.403
4.357
4.306
4.249
4.189
4.124
4.056
3.984
3.91
3.834
3.757
3.679
3.6
3.521
3.443
3.366
3.291
3.217
3.146
3.077
3.012
2.95
2.892
2.838
2.788
2.743
4.553
4.545
4.529
4.507
4.479
4.445
4.405
4.359
4.308
4.252
4.192
4.128
4.06
3.989
3.916
3.841
3.764
3.686
3.608
3.53
3.452
3.376
3.301
3.228
3.157
3.089
3.025
2.963
2.905
2.852
2.802
2.757
4.554
4.545
4.53
4.509
4.481
4.447
4.407
4.362
4.312
4.257
4.197
4.134
4.067
3.997
3.925
3.85
3.774
3.697
3.62
3.543
3.466
3.391
3.317
3.244
3.175
3.107
3.043
2.982
2.925
2.872
2.823
2.778
4.497
4.488
4.472
4.449
4.42
4.384
4.342
4.294
4.24
4.182
4.119
4.052
3.981
3.907
3.83
3.752
3.672
3.591
3.51
3.429
3.349
3.27
3.193
3.118
3.045
2.975
2.909
2.846
2.787
2.732
2.681
2.635
4.497
4.489
4.473
4.45
4.42
4.385
4.343
4.295
4.242
4.183
4.121
4.054
3.983
3.91
3.833
3.755
3.676
3.595
3.515
3.434
3.354
3.275
3.198
3.123
3.051
2.981
2.915
2.852
2.794
2.739
2.689
2.643
4.498
4.489
4.473
4.451
4.422
4.386
4.344
4.297
4.244
4.187
4.124
4.058
3.988
3.915
3.839
3.762
3.683
3.603
3.523
3.443
3.364
3.286
3.209
3.135
3.063
2.994
2.928
2.866
2.807
2.753
2.703
2.658
4.499
4.49
4.474
4.452
4.423
4.388
4.347
4.3
4.248
4.191
4.13
4.064
3.995
3.923
3.848
3.772
3.694
3.615
3.536
3.457
3.378
3.301
3.225
3.152
3.081
3.012
2.947
2.886
2.828
2.774
2.725
2.68
4.443
4.434
4.417
4.394
4.363
4.326
4.282
4.232
4.177
4.117
4.051
3.982
3.909
3.832
3.754
3.673
3.591
3.508
3.425
3.342
3.26
3.179
3.1
3.023
2.949
2.879
2.811
2.747
2.688
2.632
2.581
2.535
4.443
4.434
4.418
4.394
4.364
4.327
4.283
4.234
4.179
4.118
4.053
3.984
3.911
3.835
3.757
3.676
3.595
3.512
3.429
3.347
3.265
3.184
3.106
3.029
2.956
2.885
2.818
2.754
2.695
2.64
2.589
2.542
4.444
4.435
4.419
4.395
4.365
4.328
4.285
4.236
4.181
4.122
4.057
3.989
3.916
3.841
3.763
3.683
3.602
3.52
3.438
3.356
3.275
3.195
3.117
3.041
2.968
2.898
2.831
2.768
2.709
2.654
2.604
2.558
4.445
4.436
4.42
4.397
4.367
4.331
4.288
4.24
4.186
4.127
4.063
3.995
3.924
3.849
3.773
3.694
3.613
3.532
3.451
3.37
3.29
3.211
3.134
3.059
2.987
2.917
2.851
2.789
2.73
2.676
2.626
2.58
4.39
4.381
4.364
4.339
4.307
4.269
4.223
4.172
4.115
4.052
3.984
3.913
3.837
3.758
3.677
3.594
3.509
3.424
3.339
3.254
3.17
3.087
3.007
2.929
2.854
2.782
2.713
2.649
2.588
2.532
2.48
2.434
4.39
4.381
4.364
4.34
4.308
4.27
4.224
4.173
4.116
4.054
3.986
3.915
3.84
3.761
3.68
3.598
3.513
3.429
3.344
3.259
3.175
3.093
3.013
2.935
2.86
2.788
2.72
2.656
2.595
2.54
2.488
2.442
4.391
4.382
4.365
4.341
4.309
4.271
4.227
4.176
4.119
4.057
3.991
3.92
3.845
3.767
3.687
3.605
3.521
3.437
3.353
3.269
3.186
3.104
3.025
2.947
2.873
2.802
2.734
2.67
2.61
2.554
2.503
2.457
4.392
4.383
4.366
4.342
4.312
4.274
4.23
4.179
4.124
4.062
3.997
3.927
3.853
3.776
3.697
3.616
3.533
3.45
3.367
3.284
3.202
3.121
3.042
2.966
2.892
2.821
2.754
2.691
2.632
2.577
2.526
2.48
4.338
4.328
4.311
4.285
4.253
4.212
4.165
4.112
4.053
3.988
3.918
3.844
3.766
3.684
3.601
3.515
3.428
3.341
3.253
3.166
3.08
2.996
2.914
2.834
2.757
2.684
2.615
2.549
2.488
2.431
2.379
2.332
4.339
4.329
4.311
4.286
4.253
4.213
4.167
4.113
4.054
3.99
3.92
3.846
3.769
3.688
3.604
3.519
3.432
3.345
3.258
3.171
3.086
3.002
2.92
2.84
2.764
2.691
2.622
2.557
2.496
2.439
2.387
2.34
4.339
4.33
4.312
4.287
4.255
4.215
4.169
4.116
4.058
3.993
3.925
3.851
3.774
3.694
3.611
3.527
3.441
3.354
3.268
3.182
3.097
3.013
2.932
2.853
2.777
2.705
2.636
2.571
2.511
2.454
2.403
2.356
4.341
4.331
4.314
4.289
4.257
4.218
4.172
4.12
4.062
3.999
3.931
3.859
3.782
3.703
3.621
3.538
3.453
3.368
3.282
3.197
3.113
3.03
2.95
2.872
2.797
2.725
2.657
2.593
2.533
2.477
2.426
2.38
4.287
4.277
4.259
4.233
4.199
4.157
4.108
4.053
3.992
3.924
3.852
3.775
3.695
3.611
3.525
3.436
3.347
3.257
3.167
3.078
2.99
2.904
2.82
2.739
2.661
2.586
2.516
2.449
2.387
2.33
2.278
2.23
4.288
4.278
4.26
4.233
4.2
4.158
4.11
4.055
3.993
3.926
3.854
3.778
3.698
3.614
3.528
3.44
3.351
3.262
3.172
3.083
2.996
2.91
2.826
2.745
2.668
2.593
2.523
2.457
2.395
2.338
2.286
2.238
4.289
4.279
4.261
4.235
4.201
4.16
4.112
4.057
3.997
3.93
3.859
3.783
3.704
3.621
3.536
3.448
3.36
3.271
3.182
3.094
3.007
2.922
2.839
2.759
2.681
2.608
2.538
2.472
2.411
2.354
2.302
2.255
4.29
4.28
4.262
4.237
4.204
4.163
4.116
4.062
4.002
3.936
3.866
3.791
3.712
3.631
3.546
3.46
3.373
3.285
3.197
3.11
3.024
2.94
2.858
2.778
2.702
2.629
2.56
2.495
2.434
2.378
2.326
2.279
4.238
4.227
4.208
4.181
4.146
4.103
4.052
3.995
3.931
3.862
3.787
3.707
3.624
3.538
3.449
3.358
3.266
3.173
3.081
2.99
2.9
2.811
2.726
2.643
2.564
2.488
2.417
2.349
2.287
2.229
2.176
2.128
4.238
4.228
4.209
4.182
4.147
4.104
4.054
3.996
3.933
3.864
3.789
3.71
3.627
3.541
3.452
3.362
3.27
3.178
3.086
2.995
2.906
2.818
2.732
2.65
2.571
2.496
2.424
2.357
2.295
2.237
2.184
2.136
4.239
4.229
4.21
4.183
4.148
4.106
4.056
4
3.937
3.868
3.794
3.716
3.633
3.548
3.46
3.37
3.279
3.188
3.097
3.006
2.917
2.83
2.746
2.664
2.585
2.51
2.439
2.373
2.311
2.253
2.201
2.153
4.24
4.23
4.212
4.185
4.151
4.109
4.06
4.004
3.942
3.874
3.801
3.724
3.643
3.558
3.471
3.383
3.293
3.203
3.112
3.023
2.935
2.849
2.765
2.684
2.606
2.532
2.462
2.396
2.334
2.277
2.225
2.178
4.189
4.178
4.159
4.131
4.094
4.049
3.997
3.937
3.871
3.799
3.722
3.64
3.554
3.465
3.373
3.279
3.185
3.09
2.995
2.901
2.809
2.719
2.632
2.547
2.467
2.39
2.317
2.249
2.185
2.127
2.073
2.025
4.189
4.179
4.159
4.131
4.095
4.05
3.998
3.939
3.873
3.802
3.725
3.643
3.557
3.468
3.377
3.284
3.189
3.095
3
2.907
2.815
2.726
2.638
2.554
2.474
2.397
2.325
2.257
2.194
2.135
2.082
2.034
4.191
4.18
4.161
4.133
4.097
4.053
4.001
3.942
3.877
3.806
3.73
3.649
3.564
3.476
3.385
3.292
3.199
3.105
3.011
2.919
2.828
2.738
2.652
2.569
2.489
2.412
2.341
2.273
2.21
2.152
2.099
2.051
4.192
4.182
4.163
4.135
4.099
4.056
4.005
3.947
3.883
3.813
3.737
3.657
3.573
3.486
3.397
3.305
3.213
3.12
3.028
2.936
2.846
2.758
2.672
2.59
2.51
2.435
2.364
2.297
2.235
2.177
2.124
2.077
4.141
4.13
4.11
4.081
4.043
3.997
3.942
3.881
3.812
3.738
3.658
3.573
3.484
3.392
3.297
3.201
3.104
3.006
2.909
2.813
2.718
2.626
2.537
2.451
2.369
2.291
2.217
2.148
2.084
2.025
1.971
1.922
4.142
4.131
4.111
4.082
4.044
3.998
3.944
3.883
3.814
3.74
3.661
3.576
3.488
3.396
3.302
3.206
3.109
3.011
2.915
2.819
2.725
2.633
2.544
2.459
2.377
2.299
2.225
2.157
2.093
2.034
1.98
1.931
4.143
4.132
4.112
4.084
4.046
4
3.947
3.886
3.818
3.745
3.666
3.582
3.494
3.403
3.31
3.215
3.118
3.022
2.926
2.831
2.738
2.647
2.558
2.473
2.392
2.315
2.242
2.173
2.109
2.051
1.997
1.949
4.145
4.134
4.114
4.086
4.049
4.004
3.951
3.891
3.824
3.752
3.674
3.591
3.504
3.414
3.322
3.228
3.133
3.038
2.943
2.849
2.757
2.667
2.579
2.495
2.414
2.338
2.266
2.198
2.135
2.076
2.023
1.975
4.095
4.084
4.063
4.032
3.993
3.945
3.889
3.825
3.754
3.677
3.594
3.506
3.415
3.32
3.222
3.123
3.023
2.922
2.823
2.724
2.628
2.534
2.443
2.355
2.272
2.192
2.118
2.048
1.983
1.923
1.869
1.82
4.095
4.084
4.063
4.033
3.994
3.946
3.89
3.827
3.756
3.679
3.597
3.51
3.418
3.324
3.226
3.128
3.028
2.928
2.829
2.731
2.634
2.541
2.45
2.363
2.279
2.2
2.126
2.056
1.992
1.932
1.878
1.829
4.097
4.086
4.065
4.035
3.996
3.949
3.893
3.83
3.761
3.684
3.603
3.516
3.425
3.331
3.235
3.137
3.038
2.939
2.84
2.743
2.648
2.555
2.464
2.378
2.295
2.216
2.142
2.073
2.009
1.95
1.896
1.847
4.098
4.088
4.067
4.038
3.999
3.953
3.898
3.836
3.767
3.692
3.611
3.525
3.436
3.343
3.248
3.151
3.053
2.955
2.858
2.762
2.667
2.575
2.486
2.4
2.318
2.24
2.167
2.098
2.035
1.976
1.922
1.874
4.049
4.038
4.016
3.985
3.944
3.894
3.836
3.77
3.697
3.617
3.531
3.44
3.346
3.248
3.147
3.045
2.942
2.839
2.737
2.636
2.537
2.441
2.348
2.259
2.174
2.093
2.018
1.947
1.882
1.821
1.767
1.718
4.05
4.039
4.017
3.986
3.945
3.896
3.838
3.772
3.699
3.619
3.534
3.444
3.349
3.252
3.152
3.05
2.947
2.845
2.743
2.642
2.544
2.448
2.356
2.267
2.182
2.102
2.026
1.956
1.89
1.83
1.776
1.727
4.051
4.04
4.019
3.988
3.948
3.898
3.841
3.776
3.703
3.624
3.54
3.45
3.357
3.26
3.161
3.06
2.958
2.856
2.755
2.655
2.558
2.463
2.371
2.282
2.198
2.118
2.043
1.973
1.908
1.848
1.794
1.745
4.053
4.042
4.021
3.991
3.951
3.902
3.846
3.781
3.71
3.632
3.549
3.46
3.368
3.272
3.174
3.074
2.974
2.873
2.773
2.675
2.578
2.484
2.393
2.306
2.222
2.143
2.069
1.999
1.935
1.875
1.821
1.773
4.005
3.993
3.971
3.938
3.896
3.845
3.784
3.716
3.64
3.557
3.469
3.375
3.277
3.176
3.072
2.967
2.861
2.756
2.651
2.547
2.446
2.348
2.254
2.163
2.076
1.995
1.918
1.847
1.781
1.72
1.665
1.616
4.006
3.994
3.972
3.94
3.897
3.846
3.786
3.718
3.642
3.56
3.472
3.379
3.281
3.18
3.077
2.972
2.867
2.762
2.657
2.554
2.453
2.356
2.261
2.171
2.085
2.003
1.927
1.856
1.79
1.729
1.674
1.625
4.007
3.996
3.974
3.942
3.9
3.849
3.789
3.722
3.647
3.565
3.478
3.385
3.289
3.189
3.087
2.983
2.878
2.773
2.67
2.568
2.468
2.371
2.277
2.187
2.101
2.02
1.944
1.873
1.808
1.747
1.693
1.644
4.009
3.998
3.976
3.944
3.903
3.853
3.794
3.728
3.654
3.573
3.487
3.396
3.3
3.202
3.101
2.998
2.895
2.791
2.689
2.588
2.489
2.393
2.3
2.211
2.126
2.046
1.97
1.9
1.835
1.775
1.721
1.672
3.962
3.95
3.927
3.893
3.849
3.796
3.733
3.663
3.584
3.498
3.407
3.31
3.209
3.105
2.998
2.89
2.781
2.672
2.565
2.459
2.356
2.256
2.159
2.067
1.979
1.896
1.819
1.746
1.68
1.619
1.564
1.514
3.963
3.951
3.928
3.894
3.851
3.798
3.735
3.665
3.586
3.501
3.41
3.314
3.213
3.109
3.003
2.895
2.787
2.679
2.571
2.466
2.363
2.263
2.167
2.075
1.988
1.905
1.828
1.756
1.689
1.628
1.573
1.524
3.964
3.952
3.93
3.896
3.853
3.801
3.739
3.669
3.591
3.507
3.417
3.321
3.221
3.118
3.013
2.906
2.798
2.691
2.585
2.48
2.378
2.279
2.183
2.092
2.005
1.922
1.845
1.774
1.708
1.647
1.592
1.543
3.967
3.955
3.932
3.899
3.857
3.805
3.744
3.675
3.599
3.515
3.426
3.332
3.233
3.132
3.028
2.922
2.816
2.709
2.604
2.501
2.4
2.302
2.207
2.116
2.03
1.949
1.872
1.801
1.735
1.675
1.62
1.571
3.92
3.908
3.884
3.849
3.804
3.748
3.684
3.61
3.529
3.44
3.346
3.246
3.142
3.034
2.924
2.813
2.701
2.589
2.479
2.371
2.265
2.163
2.065
1.971
1.882
1.798
1.72
1.647
1.58
1.519
1.463
1.414
3.921
3.908
3.885
3.85
3.805
3.75
3.685
3.612
3.531
3.443
3.349
3.25
3.146
3.039
2.929
2.818
2.707
2.596
2.486
2.378
2.273
2.171
2.073
1.98
1.891
1.807
1.729
1.656
1.589
1.528
1.473
1.423
3.923
3.91
3.887
3.852
3.808
3.753
3.689
3.617
3.537
3.449
3.356
3.257
3.154
3.048
2.94
2.83
2.719
2.609
2.5
2.393
2.288
2.187
2.09
1.997
1.908
1.825
1.747
1.675
1.608
1.547
1.492
1.443
3.925
3.913
3.889
3.856
3.812
3.758
3.695
3.623
3.544
3.458
3.366
3.268
3.167
3.062
2.955
2.846
2.737
2.628
2.52
2.414
2.311
2.211
2.114
2.022
1.934
1.852
1.774
1.702
1.636
1.576
1.521
1.471
3.879
3.866
3.842
3.806
3.759
3.702
3.635
3.559
3.475
3.383
3.285
3.182
3.075
2.964
2.851
2.736
2.621
2.507
2.394
2.283
2.175
2.071
1.971
1.876
1.785
1.7
1.621
1.548
1.48
1.419
1.364
1.314
3.88
3.867
3.843
3.807
3.76
3.703
3.637
3.561
3.477
3.386
3.289
3.186
3.079
2.969
2.856
2.742
2.628
2.514
2.401
2.291
2.183
2.079
1.98
1.884
1.794
1.71
1.631
1.557
1.49
1.429
1.373
1.324
3.882
3.869
3.845
3.809
3.763
3.707
3.641
3.566
3.483
3.392
3.296
3.194
3.088
2.979
2.867
2.754
2.64
2.527
2.415
2.306
2.199
2.096
1.997
1.902
1.812
1.728
1.649
1.576
1.509
1.448
1.393
1.343
3.885
3.872
3.848
3.813
3.767
3.712
3.646
3.572
3.491
3.402
3.306
3.206
3.101
2.993
2.883
2.771
2.659
2.547
2.436
2.328
2.222
2.12
2.022
1.928
1.839
1.755
1.677
1.605
1.538
1.477
1.422
1.373
3.84
3.826
3.801
3.764
3.715
3.656
3.587
3.508
3.421
3.327
3.226
3.119
3.009
2.894
2.778
2.66
2.542
2.425
2.309
2.196
2.086
1.98
1.878
1.781
1.689
1.604
1.524
1.45
1.382
1.321
1.265
1.216
3.841
3.827
3.802
3.765
3.717
3.658
3.589
3.511
3.424
3.33
3.23
3.124
3.013
2.9
2.784
2.666
2.549
2.432
2.317
2.204
2.094
1.988
1.887
1.79
1.699
1.613
1.533
1.459
1.392
1.331
1.275
1.226
3.843
3.829
3.804
3.768
3.72
3.661
3.593
3.516
3.43
3.337
3.237
3.132
3.022
2.91
2.795
2.678
2.562
2.446
2.331
2.219
2.11
2.005
1.904
1.808
1.717
1.632
1.552
1.479
1.411
1.35
1.295
1.246
3.845
3.832
3.807
3.771
3.724
3.666
3.599
3.523
3.438
3.346
3.248
3.144
3.036
2.925
2.811
2.696
2.581
2.466
2.353
2.242
2.134
2.03
1.93
1.835
1.744
1.66
1.581
1.508
1.44
1.379
1.324
1.275
3.802
3.788
3.761
3.723
3.673
3.612
3.54
3.459
3.369
3.271
3.167
3.057
2.943
2.826
2.706
2.585
2.464
2.343
2.225
2.109
1.997
1.889
1.785
1.687
1.594
1.508
1.427
1.353
1.285
1.224
1.169
1.12
3.803
3.789
3.763
3.724
3.674
3.613
3.542
3.461
3.372
3.275
3.171
3.062
2.948
2.831
2.712
2.591
2.47
2.351
2.233
2.117
2.005
1.897
1.794
1.696
1.604
1.517
1.437
1.363
1.295
1.234
1.179
1.13
3.805
3.791
3.765
3.727
3.678
3.617
3.546
3.466
3.378
3.282
3.179
3.07
2.958
2.842
2.723
2.604
2.484
2.365
2.248
2.133
2.022
1.915
1.812
1.714
1.622
1.536
1.456
1.382
1.315
1.253
1.198
1.149
3.807
3.794
3.768
3.731
3.682
3.623
3.553
3.474
3.386
3.291
3.19
3.083
2.972
2.857
2.74
2.622
2.504
2.386
2.27
2.157
2.047
1.94
1.839
1.742
1.65
1.565
1.485
1.411
1.344
1.283
1.228
1.179
3.764
3.75
3.723
3.683
3.632
3.568
3.494
3.41
3.318
3.217
3.109
2.996
2.879
2.758
2.634
2.51
2.386
2.263
2.142
2.023
1.909
1.799
1.693
1.594
1.5
1.413
1.332
1.258
1.19
1.129
1.074
1.026
3.766
3.751
3.724
3.685
3.633
3.57
3.497
3.413
3.321
3.22
3.113
3.001
2.884
2.763
2.64
2.517
2.393
2.27
2.149
2.032
1.917
1.807
1.703
1.603
1.51
1.423
1.342
1.267
1.2
1.139
1.084
1.035
3.768
3.754
3.727
3.688
3.637
3.574
3.501
3.418
3.327
3.228
3.121
3.01
2.894
2.774
2.652
2.53
2.407
2.285
2.165
2.048
1.934
1.825
1.721
1.622
1.529
1.442
1.361
1.287
1.219
1.158
1.104
1.055
3.771
3.757
3.73
3.692
3.641
3.58
3.508
3.426
3.336
3.238
3.133
3.023
2.908
2.79
2.67
2.549
2.428
2.307
2.188
2.072
1.96
1.852
1.748
1.65
1.558
1.471
1.391
1.317
1.249
1.188
1.133
1.085
3.729
3.714
3.686
3.645
3.592
3.526
3.45
3.363
3.267
3.163
3.053
2.936
2.815
2.691
2.564
2.436
2.309
2.183
2.059
1.938
1.822
1.71
1.603
1.502
1.407
1.319
1.238
1.164
1.096
1.036
0.9814
0.9337
3.73
3.715
3.688
3.647
3.593
3.528
3.452
3.366
3.271
3.167
3.057
2.941
2.82
2.696
2.57
2.443
2.316
2.191
2.067
1.947
1.83
1.719
1.612
1.512
1.417
1.329
1.248
1.174
1.106
1.045
0.9912
0.9435
3.732
3.718
3.69
3.65
3.597
3.532
3.457
3.371
3.277
3.175
3.065
2.95
2.831
2.708
2.583
2.457
2.331
2.206
2.083
1.964
1.848
1.737
1.631
1.531
1.437
1.349
1.268
1.194
1.126
1.065
1.011
0.963
3.735
3.721
3.694
3.654
3.602
3.538
3.464
3.38
3.286
3.185
3.078
2.964
2.846
2.725
2.601
2.477
2.352
2.229
2.107
1.989
1.874
1.764
1.659
1.559
1.466
1.378
1.298
1.223
1.156
1.095
1.041
0.9925
3.694
3.679
3.651
3.608
3.553
3.485
3.406
3.317
3.218
3.111
2.997
2.877
2.753
2.625
2.495
3.696
3.681
3.652
3.61
3.555
3.488
3.409
3.32
3.222
3.115
3.002
2.882
2.758
2.631
3.698
3.683
3.655
3.613
3.558
3.492
3.414
3.326
3.228
3.123
3.01
2.892
2.769
3.701
3.687
3.658
3.617
3.564
3.498
3.421
3.334
3.238
3.134
3.023
2.906
4.61
4.602
4.588
4.567
4.541
4.509
4.471
4.428
4.38
4.328
4.271
4.211
4.147
4.081
4.011
3.94
3.868
3.794
3.72
3.646
3.572
3.499
3.427
3.357
3.29
3.225
3.162
3.103
3.047
2.995
2.947
2.904
4.611
4.603
4.589
4.569
4.543
4.511
4.474
4.432
4.386
4.334
4.279
4.22
4.157
4.092
4.024
3.955
3.883
3.811
3.739
3.666
3.594
3.522
3.452
3.383
3.317
3.253
3.192
3.133
3.079
3.028
2.981
2.938
4.611
4.603
4.59
4.57
4.545
4.514
4.478
4.437
4.392
4.342
4.288
4.23
4.169
4.105
4.039
3.971
3.902
3.832
3.761
3.69
3.619
3.549
3.481
3.414
3.349
3.286
3.226
3.169
3.116
3.066
3.02
2.978
4.611
4.603
4.59
4.571
4.546
4.517
4.482
4.442
4.398
4.349
4.297
4.241
4.182
4.12
4.056
3.99
3.923
3.854
3.786
3.717
3.648
3.58
3.513
3.448
3.385
3.324
3.266
3.211
3.159
3.11
3.065
3.024
4.61
4.603
4.59
4.571
4.548
4.519
4.485
4.447
4.404
4.358
4.307
4.253
4.196
4.136
4.075
4.011
3.946
3.88
3.813
3.746
3.68
3.614
3.55
3.487
3.426
3.367
3.31
3.257
3.206
3.159
3.116
3.076
4.608
4.601
4.589
4.571
4.548
4.521
4.488
4.452
4.411
4.366
4.317
4.266
4.211
4.154
4.094
4.033
3.971
3.907
3.843
3.779
3.715
3.652
3.59
3.529
3.47
3.414
3.359
3.308
3.259
3.213
3.171
3.133
4.605
4.598
4.586
4.57
4.548
4.522
4.491
4.456
4.417
4.374
4.328
4.279
4.226
4.172
4.115
4.057
3.997
3.936
3.875
3.814
3.753
3.692
3.633
3.575
3.518
3.464
3.412
3.362
3.316
3.272
3.232
3.195
4.601
4.594
4.583
4.567
4.546
4.521
4.492
4.459
4.422
4.382
4.338
4.291
4.242
4.19
4.136
4.081
4.024
3.967
3.909
3.85
3.792
3.735
3.678
3.623
3.57
3.518
3.468
3.421
3.376
3.335
3.296
3.261
4.594
4.588
4.577
4.562
4.543
4.52
4.492
4.461
4.427
4.389
4.348
4.304
4.257
4.208
4.158
4.106
4.052
3.998
3.943
3.888
3.834
3.78
3.726
3.674
3.623
3.574
3.527
3.483
3.441
3.401
3.365
3.331
4.586
4.58
4.57
4.556
4.538
4.516
4.491
4.462
4.43
4.394
4.356
4.315
4.272
4.226
4.179
4.13
4.081
4.03
3.979
3.928
3.876
3.826
3.776
3.727
3.679
3.633
3.589
3.547
3.508
3.471
3.436
3.405
4.575
4.57
4.56
4.547
4.531
4.511
4.488
4.461
4.431
4.399
4.363
4.325
4.285
4.244
4.2
4.155
4.109
4.062
4.015
3.967
3.92
3.873
3.826
3.781
3.737
3.694
3.653
3.614
3.577
3.543
3.511
3.482
4.561
4.556
4.548
4.536
4.521
4.503
4.482
4.458
4.431
4.401
4.369
4.334
4.298
4.26
4.22
4.179
4.137
4.094
4.05
4.007
3.963
3.92
3.878
3.836
3.795
3.756
3.718
3.683
3.649
3.617
3.587
3.56
4.545
4.54
4.533
4.523
4.509
4.493
4.474
4.452
4.428
4.401
4.372
4.341
4.309
4.274
4.238
4.201
4.163
4.124
4.085
4.046
4.007
3.967
3.929
3.891
3.854
3.819
3.784
3.752
3.721
3.692
3.665
3.64
4.525
4.522
4.516
4.507
4.495
4.481
4.464
4.445
4.423
4.399
4.373
4.346
4.317
4.286
4.254
4.221
4.187
4.152
4.117
4.082
4.046
4.011
3.977
3.943
3.91
3.878
3.847
3.817
3.789
3.763
3.739
3.717
4.508
4.505
4.5
4.492
4.482
4.469
4.453
4.436
4.416
4.395
4.371
4.346
4.32
4.292
4.262
4.232
4.201
4.169
4.137
4.105
4.073
4.041
4.009
3.978
3.947
3.918
3.89
3.863
3.837
3.813
3.79
3.77
4.555
4.546
4.531
4.51
4.483
4.449
4.41
4.366
4.317
4.262
4.204
4.141
4.076
4.007
3.936
3.862
3.788
3.712
3.636
3.56
3.485
3.41
3.337
3.266
3.197
3.131
3.068
3.008
2.951
2.899
2.851
2.807
4.555
4.547
4.532
4.512
4.485
4.452
4.414
4.371
4.322
4.269
4.212
4.151
4.086
4.019
3.949
3.877
3.804
3.73
3.656
3.581
3.507
3.434
3.363
3.293
3.225
3.16
3.098
3.039
2.984
2.932
2.885
2.841
4.556
4.548
4.533
4.513
4.487
4.455
4.418
4.376
4.328
4.277
4.221
4.161
4.099
4.033
3.965
3.895
3.824
3.751
3.679
3.606
3.534
3.462
3.392
3.324
3.258
3.195
3.134
3.076
3.022
2.972
2.925
2.883
4.556
4.548
4.534
4.514
4.489
4.458
4.422
4.381
4.335
4.285
4.231
4.173
4.112
4.049
3.983
3.915
3.846
3.775
3.705
3.634
3.564
3.495
3.427
3.36
3.296
3.234
3.175
3.119
3.066
3.017
2.972
2.931
4.555
4.547
4.534
4.515
4.491
4.461
4.426
4.386
4.342
4.294
4.242
4.186
4.127
4.066
4.002
3.937
3.87
3.802
3.734
3.665
3.597
3.53
3.465
3.4
3.338
3.278
3.221
3.167
3.116
3.068
3.024
2.984
4.553
4.546
4.533
4.515
4.491
4.463
4.43
4.392
4.349
4.303
4.253
4.199
4.143
4.084
4.023
3.96
3.896
3.831
3.765
3.699
3.634
3.57
3.506
3.444
3.384
3.327
3.272
3.219
3.17
3.124
3.081
3.043
4.55
4.543
4.531
4.514
4.491
4.464
4.432
4.396
4.356
4.312
4.264
4.213
4.159
4.103
4.045
3.985
3.923
3.861
3.798
3.736
3.673
3.611
3.551
3.492
3.434
3.379
3.326
3.276
3.229
3.185
3.144
3.107
4.546
4.539
4.527
4.511
4.49
4.464
4.434
4.4
4.362
4.32
4.275
4.227
4.176
4.122
4.067
4.01
3.952
3.893
3.833
3.774
3.715
3.656
3.598
3.542
3.487
3.435
3.384
3.337
3.291
3.249
3.21
3.175
4.54
4.533
4.522
4.507
4.487
4.463
4.435
4.402
4.367
4.327
4.285
4.24
4.192
4.142
4.09
4.036
3.981
3.926
3.87
3.814
3.758
3.702
3.648
3.595
3.543
3.493
3.446
3.4
3.358
3.318
3.281
3.247
4.531
4.525
4.515
4.5
4.482
4.46
4.433
4.403
4.37
4.334
4.294
4.252
4.207
4.161
4.112
4.062
4.011
3.959
3.907
3.854
3.802
3.75
3.699
3.65
3.601
3.554
3.51
3.467
3.427
3.39
3.355
3.323
4.52
4.515
4.505
4.492
4.475
4.454
4.43
4.403
4.372
4.338
4.302
4.263
4.222
4.179
4.134
4.088
4.041
3.993
3.944
3.896
3.847
3.799
3.752
3.706
3.661
3.617
3.576
3.536
3.499
3.464
3.432
3.402
4.506
4.501
4.493
4.481
4.465
4.447
4.425
4.4
4.372
4.341
4.308
4.273
4.235
4.196
4.155
4.113
4.07
4.026
3.982
3.937
3.893
3.849
3.805
3.763
3.722
3.682
3.643
3.607
3.573
3.54
3.511
3.483
4.489
4.485
4.477
4.467
4.453
4.436
4.417
4.394
4.369
4.342
4.312
4.28
4.247
4.211
4.175
4.137
4.098
4.058
4.018
3.978
3.938
3.898
3.859
3.82
3.783
3.746
3.712
3.678
3.647
3.618
3.59
3.565
4.47
4.466
4.459
4.45
4.438
4.424
4.406
4.387
4.364
4.34
4.314
4.285
4.255
4.224
4.191
4.157
4.123
4.087
4.051
4.015
3.979
3.944
3.908
3.874
3.84
3.807
3.776
3.746
3.718
3.691
3.667
3.644
4.452
4.449
4.444
4.435
4.425
4.412
4.396
4.378
4.358
4.336
4.312
4.286
4.259
4.23
4.2
4.169
4.138
4.105
4.073
4.04
4.007
3.974
3.942
3.91
3.879
3.849
3.82
3.793
3.767
3.742
3.72
3.699
4.5
4.491
4.476
4.454
4.425
4.391
4.351
4.305
4.253
4.197
4.137
4.072
4.004
3.933
3.86
3.785
3.708
3.63
3.552
3.475
3.397
3.321
3.247
3.174
3.104
3.037
2.973
2.912
2.855
2.802
2.753
2.709
4.501
4.492
4.477
4.456
4.428
4.394
4.355
4.31
4.259
4.204
4.145
4.082
4.016
3.946
3.874
3.8
3.725
3.649
3.573
3.497
3.421
3.346
3.273
3.202
3.133
3.067
3.004
2.945
2.889
2.836
2.788
2.745
4.501
4.493
4.478
4.457
4.43
4.397
4.359
4.315
4.266
4.213
4.155
4.093
4.029
3.961
3.891
3.819
3.746
3.671
3.597
3.522
3.448
3.376
3.304
3.235
3.167
3.103
3.041
2.983
2.928
2.877
2.83
2.787
4.501
4.493
4.479
4.459
4.433
4.401
4.363
4.321
4.273
4.222
4.166
4.106
4.043
3.977
3.909
3.84
3.768
3.696
3.624
3.552
3.48
3.409
3.34
3.272
3.207
3.144
3.084
3.027
2.974
2.924
2.878
2.836
4.501
4.493
4.479
4.46
4.434
4.404
4.368
4.327
4.281
4.231
4.177
4.119
4.059
3.995
3.93
3.862
3.794
3.724
3.654
3.584
3.515
3.446
3.379
3.314
3.25
3.19
3.131
3.076
3.025
2.976
2.932
2.891
4.499
4.492
4.479
4.46
4.435
4.406
4.371
4.332
4.288
4.241
4.189
4.134
4.075
4.015
3.952
3.887
3.821
3.754
3.687
3.62
3.553
3.487
3.422
3.359
3.298
3.24
3.184
3.131
3.081
3.034
2.991
2.952
4.497
4.489
4.477
4.459
4.436
4.407
4.375
4.337
4.296
4.25
4.201
4.148
4.093
4.035
3.975
3.913
3.85
3.786
3.722
3.658
3.594
3.531
3.469
3.409
3.35
3.294
3.24
3.189
3.141
3.097
3.055
3.018
4.492
4.485
4.473
4.456
4.434
4.408
4.377
4.341
4.302
4.259
4.212
4.162
4.11
4.055
3.998
3.94
3.88
3.819
3.758
3.697
3.637
3.577
3.518
3.461
3.405
3.352
3.3
3.252
3.206
3.164
3.124
3.088
4.486
4.479
4.468
4.452
4.432
4.407
4.377
4.344
4.307
4.267
4.223
4.176
4.127
4.076
4.022
3.967
3.911
3.854
3.796
3.739
3.682
3.625
3.57
3.516
3.463
3.412
3.364
3.318
3.275
3.234
3.197
3.163
4.477
4.471
4.461
4.446
4.427
4.404
4.377
4.346
4.311
4.274
4.233
4.19
4.144
4.096
4.046
3.994
3.942
3.889
3.835
3.781
3.728
3.675
3.623
3.572
3.523
3.476
3.43
3.387
3.346
3.308
3.273
3.241
4.466
4.46
4.451
4.437
4.42
4.398
4.374
4.345
4.314
4.279
4.242
4.202
4.159
4.115
4.069
4.022
3.973
3.924
3.874
3.825
3.775
3.726
3.678
3.631
3.585
3.541
3.499
3.458
3.421
3.385
3.352
3.322
4.452
4.447
4.438
4.426
4.41
4.391
4.368
4.343
4.314
4.282
4.248
4.212
4.173
4.133
4.091
4.048
4.004
3.959
3.913
3.868
3.823
3.778
3.733
3.69
3.648
3.608
3.569
3.532
3.497
3.464
3.434
3.406
4.435
4.43
4.422
4.411
4.397
4.38
4.36
4.337
4.312
4.283
4.253
4.22
4.186
4.149
4.112
4.073
4.033
3.992
3.951
3.91
3.869
3.829
3.789
3.749
3.711
3.674
3.639
3.605
3.573
3.544
3.516
3.491
4.414
4.411
4.404
4.395
4.382
4.367
4.35
4.329
4.307
4.282
4.255
4.226
4.195
4.163
4.129
4.094
4.059
4.023
3.986
3.949
3.913
3.876
3.84
3.805
3.771
3.737
3.706
3.675
3.646
3.619
3.595
3.572
4.396
4.394
4.388
4.38
4.369
4.355
4.339
4.321
4.3
4.278
4.253
4.227
4.199
4.169
4.139
4.107
4.075
4.042
4.009
3.975
3.941
3.908
3.875
3.843
3.811
3.781
3.751
3.723
3.697
3.672
3.649
3.628
4.446
4.437
4.421
4.399
4.369
4.334
4.292
4.244
4.191
4.133
4.07
4.004
3.934
3.86
3.785
3.707
3.628
3.549
3.469
3.389
3.31
3.232
3.156
3.082
3.011
2.943
2.877
2.816
2.758
2.704
2.655
2.61
4.447
4.438
4.423
4.401
4.372
4.337
4.296
4.249
4.197
4.141
4.079
4.014
3.945
3.874
3.8
3.724
3.646
3.568
3.49
3.412
3.334
3.258
3.183
3.111
3.041
2.974
2.91
2.849
2.793
2.74
2.691
2.647
4.448
4.439
4.424
4.403
4.375
4.34
4.301
4.255
4.205
4.149
4.09
4.026
3.959
3.889
3.817
3.743
3.668
3.591
3.515
3.439
3.363
3.289
3.216
3.145
3.076
3.011
2.948
2.889
2.834
2.782
2.734
2.691
4.448
4.44
4.425
4.404
4.377
4.344
4.305
4.261
4.212
4.159
4.101
4.039
3.974
3.907
3.837
3.765
3.692
3.618
3.543
3.469
3.396
3.323
3.253
3.184
3.117
3.053
2.992
2.935
2.881
2.83
2.784
2.742
4.448
4.44
4.426
4.405
4.379
4.347
4.31
4.268
4.22
4.169
4.113
4.054
3.991
3.926
3.858
3.789
3.718
3.647
3.575
3.503
3.432
3.362
3.294
3.227
3.162
3.101
3.041
2.986
2.933
2.884
2.839
2.798
4.446
4.439
4.425
4.406
4.381
4.35
4.314
4.274
4.228
4.179
4.125
4.069
4.008
3.946
3.881
3.814
3.747
3.678
3.609
3.54
3.472
3.404
3.339
3.274
3.212
3.153
3.096
3.042
2.991
2.944
2.9
2.861
4.444
4.436
4.423
4.405
4.381
4.352
4.318
4.279
4.236
4.189
4.138
4.084
4.027
3.967
3.905
3.842
3.777
3.711
3.645
3.58
3.514
3.45
3.387
3.325
3.266
3.209
3.154
3.102
3.054
3.008
2.967
2.929
4.439
4.432
4.42
4.402
4.38
4.352
4.32
4.284
4.243
4.198
4.15
4.099
4.045
3.988
3.93
3.87
3.808
3.746
3.684
3.621
3.559
3.498
3.438
3.38
3.323
3.268
3.216
3.167
3.121
3.078
3.038
3.001
4.433
4.426
4.415
4.398
4.377
4.351
4.321
4.287
4.249
4.207
4.162
4.114
4.063
4.01
3.955
3.898
3.841
3.782
3.723
3.664
3.606
3.548
3.492
3.436
3.383
3.331
3.282
3.235
3.192
3.151
3.113
3.078
4.425
4.418
4.407
4.392
4.372
4.349
4.321
4.289
4.253
4.215
4.173
4.128
4.081
4.031
3.98
3.927
3.873
3.819
3.764
3.709
3.654
3.6
3.547
3.495
3.445
3.397
3.351
3.307
3.266
3.227
3.191
3.159
4.413
4.407
4.397
4.383
4.365
4.343
4.318
4.289
4.256
4.22
4.182
4.141
4.097
4.051
4.004
3.956
3.906
3.855
3.805
3.754
3.703
3.653
3.604
3.556
3.509
3.465
3.422
3.381
3.342
3.306
3.273
3.243
4.399
4.394
4.384
4.372
4.356
4.336
4.313
4.286
4.257
4.224
4.189
4.152
4.112
4.071
4.028
3.983
3.938
3.892
3.845
3.799
3.753
3.707
3.662
3.618
3.575
3.533
3.494
3.456
3.421
3.388
3.357
3.329
4.381
4.376
4.368
4.357
4.343
4.325
4.305
4.281
4.254
4.226
4.194
4.161
4.125
4.088
4.049
4.009
3.968
3.927
3.885
3.843
3.801
3.76
3.719
3.679
3.64
3.603
3.567
3.532
3.5
3.47
3.442
3.416
4.36
4.356
4.35
4.34
4.327
4.312
4.294
4.273
4.25
4.224
4.196
4.166
4.135
4.102
4.068
4.032
3.996
3.959
3.921
3.884
3.846
3.809
3.773
3.737
3.702
3.668
3.635
3.605
3.575
3.548
3.523
3.499
4.342
4.339
4.333
4.324
4.313
4.299
4.283
4.264
4.243
4.22
4.195
4.168
4.139
4.109
4.078
4.046
4.013
3.979
3.945
3.911
3.876
3.842
3.809
3.776
3.744
3.713
3.683
3.654
3.627
3.602
3.579
3.557
4.393
4.384
4.368
4.344
4.314
4.277
4.234
4.184
4.129
4.069
4.004
3.936
3.863
3.788
3.71
3.63
3.549
3.467
3.385
3.303
3.222
3.143
3.065
2.99
2.917
2.848
2.782
2.719
2.661
2.606
2.557
2.511
4.395
4.386
4.37
4.347
4.317
4.281
4.238
4.19
4.136
4.077
4.014
3.947
3.876
3.802
3.725
3.647
3.568
3.487
3.407
3.327
3.248
3.17
3.094
3.02
2.948
2.88
2.815
2.754
2.696
2.643
2.594
2.549
4.396
4.387
4.371
4.349
4.32
4.284
4.243
4.196
4.144
4.087
4.025
3.959
3.89
3.818
3.744
3.667
3.59
3.512
3.433
3.355
3.277
3.201
3.127
3.055
2.985
2.918
2.855
2.795
2.739
2.686
2.638
2.595
4.396
4.388
4.372
4.351
4.323
4.288
4.248
4.203
4.152
4.097
4.037
3.973
3.906
3.836
3.764
3.69
3.615
3.539
3.463
3.387
3.312
3.238
3.165
3.095
3.027
2.962
2.9
2.842
2.787
2.736
2.689
2.647
4.396
4.388
4.373
4.352
4.325
4.292
4.253
4.21
4.161
4.107
4.05
3.988
3.924
3.856
3.787
3.715
3.643
3.569
3.496
3.422
3.349
3.278
3.208
3.14
3.074
3.011
2.951
2.895
2.841
2.792
2.746
2.705
4.395
4.387
4.373
4.353
4.327
4.295
4.258
4.216
4.169
4.118
4.063
4.004
3.942
3.877
3.811
3.742
3.672
3.602
3.531
3.461
3.391
3.322
3.255
3.189
3.126
3.065
3.007
2.952
2.901
2.853
2.809
2.769
4.392
4.385
4.371
4.352
4.327
4.297
4.262
4.222
4.177
4.129
4.076
4.02
3.961
3.9
3.836
3.771
3.704
3.637
3.569
3.502
3.435
3.369
3.305
3.242
3.181
3.123
3.068
3.015
2.966
2.92
2.878
2.839
4.388
4.381
4.368
4.35
4.326
4.298
4.265
4.227
4.185
4.139
4.089
4.036
3.98
3.922
3.862
3.8
3.737
3.673
3.609
3.545
3.482
3.419
3.358
3.298
3.241
3.185
3.132
3.082
3.035
2.991
2.951
2.914
4.382
4.375
4.363
4.346
4.324
4.297
4.266
4.231
4.191
4.148
4.102
4.052
4
3.945
3.888
3.83
3.771
3.711
3.651
3.59
3.53
3.471
3.414
3.357
3.303
3.25
3.2
3.153
3.108
3.067
3.028
2.993
4.373
4.366
4.355
4.339
4.319
4.295
4.266
4.233
4.196
4.156
4.113
4.067
4.018
3.967
3.915
3.86
3.805
3.749
3.693
3.637
3.581
3.525
3.471
3.419
3.367
3.318
3.271
3.227
3.185
3.146
3.11
3.077
4.361
4.355
4.345
4.331
4.312
4.289
4.263
4.233
4.199
4.163
4.123
4.08
4.036
3.989
3.94
3.89
3.839
3.788
3.736
3.683
3.632
3.581
3.53
3.481
3.434
3.388
3.344
3.303
3.264
3.227
3.194
3.163
4.347
4.341
4.332
4.319
4.302
4.282
4.258
4.231
4.2
4.167
4.131
4.092
4.051
4.009
3.965
3.919
3.873
3.826
3.778
3.73
3.683
3.636
3.59
3.545
3.502
3.46
3.419
3.381
3.345
3.311
3.28
3.252
4.328
4.324
4.315
4.304
4.289
4.271
4.25
4.225
4.198
4.168
4.136
4.102
4.065
4.027
3.987
3.946
3.905
3.862
3.819
3.776
3.734
3.691
3.65
3.609
3.569
3.531
3.494
3.46
3.427
3.396
3.368
3.342
4.307
4.303
4.296
4.286
4.273
4.257
4.239
4.217
4.193
4.167
4.139
4.108
4.076
4.042
4.007
3.97
3.933
3.895
3.857
3.819
3.781
3.743
3.705