/*--------------------------------*- C++ -*----------------------------------*\
  =========                 |
  \\      /  F ield         | OpenFOAM: The Open Source CFD Toolbox
   \\    /   O peration     | Website:  https://openfoam.org
    \\  /    A nd           | Version:  6
     \\/     M anipulation  |
\*---------------------------------------------------------------------------*/
FoamFile
{
    version     2.0;
    format      ascii;
    class       volScalarField;
    location    "15";
    object      Umag;
}
// * * * * * * * * * * * * * * * * * * * * * * * * * * * * * * * * * * * * * //

dimensions      [0 0 0 0 0 0 0];

internalField   nonuniform List<scalar> 
16128
(
9.348e-06
1.323e-05
1.369e-05
1.38e-05
1.392e-05
1.405e-05
1.422e-05
1.441e-05
1.464e-05
1.489e-05
1.516e-05
1.547e-05
1.58e-05
1.615e-05
1.653e-05
1.694e-05
1.736e-05
1.781e-05
1.827e-05
1.875e-05
1.925e-05
1.976e-05
2.027e-05
2.079e-05
2.131e-05
2.183e-05
2.234e-05
2.284e-05
2.333e-05
2.379e-05
2.423e-05
2.464e-05
9.347e-06
1.323e-05
1.369e-05
1.38e-05
1.392e-05
1.405e-05
1.422e-05
1.441e-05
1.463e-05
1.488e-05
1.516e-05
1.546e-05
1.579e-05
1.615e-05
1.653e-05
1.693e-05
1.736e-05
1.78e-05
1.827e-05
1.875e-05
1.924e-05
1.975e-05
2.026e-05
2.078e-05
2.13e-05
2.182e-05
2.233e-05
2.283e-05
2.332e-05
2.378e-05
2.422e-05
2.464e-05
9.346e-06
1.323e-05
1.368e-05
1.38e-05
1.391e-05
1.405e-05
1.422e-05
1.441e-05
1.463e-05
1.488e-05
1.516e-05
1.546e-05
1.579e-05
1.615e-05
1.653e-05
1.693e-05
1.735e-05
1.78e-05
1.826e-05
1.874e-05
1.924e-05
1.974e-05
2.025e-05
2.077e-05
2.129e-05
2.181e-05
2.232e-05
2.282e-05
2.33e-05
2.377e-05
2.421e-05
2.462e-05
9.345e-06
1.323e-05
1.368e-05
1.38e-05
1.391e-05
1.405e-05
1.421e-05
1.441e-05
1.463e-05
1.488e-05
1.515e-05
1.546e-05
1.579e-05
1.614e-05
1.652e-05
1.692e-05
1.734e-05
1.779e-05
1.825e-05
1.873e-05
1.922e-05
1.973e-05
2.024e-05
2.076e-05
2.127e-05
2.179e-05
2.23e-05
2.28e-05
2.328e-05
2.374e-05
2.418e-05
2.459e-05
9.327e-06
1.321e-05
1.366e-05
1.378e-05
1.389e-05
1.403e-05
1.419e-05
1.439e-05
1.461e-05
1.486e-05
1.514e-05
1.545e-05
1.578e-05
1.614e-05
1.652e-05
1.693e-05
1.735e-05
1.78e-05
1.827e-05
1.876e-05
1.926e-05
1.977e-05
2.029e-05
2.081e-05
2.133e-05
2.186e-05
2.237e-05
2.288e-05
2.337e-05
2.384e-05
2.428e-05
2.47e-05
9.327e-06
1.32e-05
1.366e-05
1.377e-05
1.389e-05
1.403e-05
1.419e-05
1.439e-05
1.461e-05
1.486e-05
1.514e-05
1.544e-05
1.578e-05
1.613e-05
1.652e-05
1.692e-05
1.735e-05
1.78e-05
1.827e-05
1.875e-05
1.925e-05
1.976e-05
2.028e-05
2.08e-05
2.133e-05
2.185e-05
2.237e-05
2.287e-05
2.336e-05
2.383e-05
2.427e-05
2.469e-05
9.326e-06
1.32e-05
1.365e-05
1.377e-05
1.389e-05
1.402e-05
1.419e-05
1.438e-05
1.461e-05
1.486e-05
1.514e-05
1.544e-05
1.577e-05
1.613e-05
1.651e-05
1.692e-05
1.735e-05
1.779e-05
1.826e-05
1.874e-05
1.924e-05
1.975e-05
2.027e-05
2.079e-05
2.132e-05
2.184e-05
2.235e-05
2.286e-05
2.334e-05
2.381e-05
2.426e-05
2.467e-05
9.324e-06
1.32e-05
1.365e-05
1.377e-05
1.388e-05
1.402e-05
1.419e-05
1.438e-05
1.46e-05
1.485e-05
1.513e-05
1.544e-05
1.577e-05
1.612e-05
1.65e-05
1.691e-05
1.734e-05
1.778e-05
1.825e-05
1.873e-05
1.923e-05
1.974e-05
2.025e-05
2.077e-05
2.13e-05
2.182e-05
2.233e-05
2.283e-05
2.332e-05
2.379e-05
2.423e-05
2.464e-05
9.288e-06
1.315e-05
1.36e-05
1.372e-05
1.383e-05
1.397e-05
1.414e-05
1.434e-05
1.456e-05
1.482e-05
1.51e-05
1.541e-05
1.574e-05
1.611e-05
1.649e-05
1.691e-05
1.734e-05
1.78e-05
1.827e-05
1.876e-05
1.927e-05
1.979e-05
2.031e-05
2.085e-05
2.138e-05
2.191e-05
2.244e-05
2.295e-05
2.345e-05
2.393e-05
2.438e-05
2.481e-05
9.287e-06
1.315e-05
1.36e-05
1.372e-05
1.383e-05
1.397e-05
1.414e-05
1.434e-05
1.456e-05
1.482e-05
1.51e-05
1.541e-05
1.574e-05
1.61e-05
1.649e-05
1.69e-05
1.734e-05
1.779e-05
1.827e-05
1.876e-05
1.926e-05
1.978e-05
2.031e-05
2.084e-05
2.137e-05
2.19e-05
2.243e-05
2.294e-05
2.344e-05
2.392e-05
2.437e-05
2.48e-05
9.286e-06
1.315e-05
1.36e-05
1.372e-05
1.383e-05
1.397e-05
1.414e-05
1.433e-05
1.456e-05
1.481e-05
1.509e-05
1.54e-05
1.574e-05
1.61e-05
1.649e-05
1.69e-05
1.733e-05
1.779e-05
1.826e-05
1.875e-05
1.925e-05
1.977e-05
2.03e-05
2.083e-05
2.136e-05
2.189e-05
2.241e-05
2.293e-05
2.342e-05
2.39e-05
2.435e-05
2.478e-05
9.285e-06
1.314e-05
1.359e-05
1.371e-05
1.383e-05
1.397e-05
1.413e-05
1.433e-05
1.456e-05
1.481e-05
1.509e-05
1.54e-05
1.573e-05
1.609e-05
1.648e-05
1.689e-05
1.732e-05
1.778e-05
1.825e-05
1.874e-05
1.924e-05
1.976e-05
2.028e-05
2.081e-05
2.134e-05
2.187e-05
2.239e-05
2.29e-05
2.34e-05
2.387e-05
2.432e-05
2.474e-05
9.229e-06
1.307e-05
1.351e-05
1.363e-05
1.375e-05
1.389e-05
1.406e-05
1.426e-05
1.449e-05
1.475e-05
1.504e-05
1.535e-05
1.569e-05
1.606e-05
1.646e-05
1.688e-05
1.732e-05
1.778e-05
1.827e-05
1.877e-05
1.929e-05
1.982e-05
2.036e-05
2.09e-05
2.145e-05
2.199e-05
2.253e-05
2.306e-05
2.357e-05
2.406e-05
2.453e-05
2.497e-05
9.229e-06
1.307e-05
1.351e-05
1.363e-05
1.375e-05
1.389e-05
1.406e-05
1.426e-05
1.449e-05
1.475e-05
1.504e-05
1.535e-05
1.569e-05
1.606e-05
1.645e-05
1.687e-05
1.732e-05
1.778e-05
1.826e-05
1.877e-05
1.928e-05
1.981e-05
2.035e-05
2.09e-05
2.144e-05
2.199e-05
2.252e-05
2.305e-05
2.356e-05
2.405e-05
2.452e-05
2.495e-05
9.228e-06
1.306e-05
1.351e-05
1.363e-05
1.375e-05
1.389e-05
1.406e-05
1.426e-05
1.449e-05
1.475e-05
1.503e-05
1.535e-05
1.569e-05
1.606e-05
1.645e-05
1.687e-05
1.731e-05
1.777e-05
1.826e-05
1.876e-05
1.927e-05
1.98e-05
2.034e-05
2.088e-05
2.143e-05
2.197e-05
2.251e-05
2.303e-05
2.354e-05
2.403e-05
2.45e-05
2.493e-05
9.226e-06
1.306e-05
1.351e-05
1.363e-05
1.374e-05
1.389e-05
1.406e-05
1.426e-05
1.448e-05
1.474e-05
1.503e-05
1.534e-05
1.568e-05
1.605e-05
1.644e-05
1.686e-05
1.73e-05
1.776e-05
1.824e-05
1.874e-05
1.926e-05
1.979e-05
2.032e-05
2.086e-05
2.141e-05
2.195e-05
2.248e-05
2.301e-05
2.351e-05
2.4e-05
2.446e-05
2.49e-05
9.152e-06
1.296e-05
1.34e-05
1.352e-05
1.364e-05
1.379e-05
1.396e-05
1.417e-05
1.44e-05
1.466e-05
1.496e-05
1.528e-05
1.563e-05
1.6e-05
1.641e-05
1.684e-05
1.729e-05
1.777e-05
1.827e-05
1.878e-05
1.932e-05
1.986e-05
2.042e-05
2.098e-05
2.154e-05
2.21e-05
2.266e-05
2.321e-05
2.374e-05
2.424e-05
2.473e-05
2.518e-05
9.151e-06
1.296e-05
1.34e-05
1.352e-05
1.364e-05
1.379e-05
1.396e-05
1.416e-05
1.44e-05
1.466e-05
1.495e-05
1.528e-05
1.562e-05
1.6e-05
1.641e-05
1.684e-05
1.729e-05
1.777e-05
1.826e-05
1.878e-05
1.931e-05
1.985e-05
2.041e-05
2.097e-05
2.153e-05
2.21e-05
2.265e-05
2.32e-05
2.372e-05
2.423e-05
2.472e-05
2.517e-05
9.15e-06
1.295e-05
1.34e-05
1.352e-05
1.364e-05
1.378e-05
1.396e-05
1.416e-05
1.44e-05
1.466e-05
1.495e-05
1.527e-05
1.562e-05
1.6e-05
1.64e-05
1.683e-05
1.728e-05
1.776e-05
1.825e-05
1.877e-05
1.93e-05
1.984e-05
2.04e-05
2.095e-05
2.152e-05
2.208e-05
2.263e-05
2.317e-05
2.37e-05
2.421e-05
2.469e-05
2.514e-05
9.148e-06
1.295e-05
1.34e-05
1.352e-05
1.364e-05
1.378e-05
1.395e-05
1.416e-05
1.439e-05
1.465e-05
1.494e-05
1.527e-05
1.561e-05
1.599e-05
1.639e-05
1.682e-05
1.727e-05
1.775e-05
1.824e-05
1.875e-05
1.928e-05
1.982e-05
2.038e-05
2.093e-05
2.149e-05
2.205e-05
2.26e-05
2.314e-05
2.367e-05
2.417e-05
2.465e-05
2.51e-05
9.055e-06
1.282e-05
1.326e-05
1.339e-05
1.351e-05
1.365e-05
1.383e-05
1.404e-05
1.428e-05
1.455e-05
1.485e-05
1.518e-05
1.554e-05
1.593e-05
1.635e-05
1.679e-05
1.726e-05
1.775e-05
1.827e-05
1.88e-05
1.935e-05
1.991e-05
2.049e-05
2.107e-05
2.166e-05
2.224e-05
2.282e-05
2.339e-05
2.394e-05
2.448e-05
2.498e-05
2.545e-05
9.054e-06
1.282e-05
1.326e-05
1.338e-05
1.351e-05
1.365e-05
1.383e-05
1.404e-05
1.428e-05
1.455e-05
1.485e-05
1.518e-05
1.554e-05
1.593e-05
1.635e-05
1.679e-05
1.726e-05
1.775e-05
1.826e-05
1.879e-05
1.934e-05
1.991e-05
2.048e-05
2.106e-05
2.165e-05
2.223e-05
2.281e-05
2.338e-05
2.393e-05
2.446e-05
2.497e-05
2.544e-05
9.053e-06
1.282e-05
1.326e-05
1.338e-05
1.35e-05
1.365e-05
1.383e-05
1.404e-05
1.428e-05
1.455e-05
1.485e-05
1.518e-05
1.554e-05
1.592e-05
1.634e-05
1.678e-05
1.725e-05
1.774e-05
1.825e-05
1.878e-05
1.933e-05
1.989e-05
2.047e-05
2.105e-05
2.163e-05
2.221e-05
2.279e-05
2.336e-05
2.391e-05
2.443e-05
2.494e-05
2.541e-05
9.051e-06
1.281e-05
1.326e-05
1.338e-05
1.35e-05
1.365e-05
1.383e-05
1.403e-05
1.427e-05
1.454e-05
1.484e-05
1.517e-05
1.553e-05
1.592e-05
1.633e-05
1.677e-05
1.724e-05
1.772e-05
1.824e-05
1.877e-05
1.931e-05
1.987e-05
2.044e-05
2.102e-05
2.16e-05
2.218e-05
2.276e-05
2.332e-05
2.387e-05
2.439e-05
2.489e-05
2.536e-05
8.939e-06
1.266e-05
1.309e-05
1.322e-05
1.334e-05
1.35e-05
1.368e-05
1.39e-05
1.414e-05
1.442e-05
1.473e-05
1.507e-05
1.544e-05
1.585e-05
1.628e-05
1.673e-05
1.722e-05
1.773e-05
1.826e-05
1.882e-05
1.939e-05
1.998e-05
2.058e-05
2.119e-05
2.18e-05
2.242e-05
2.302e-05
2.362e-05
2.42e-05
2.476e-05
2.529e-05
2.579e-05
8.938e-06
1.266e-05
1.309e-05
1.322e-05
1.334e-05
1.35e-05
1.368e-05
1.389e-05
1.414e-05
1.442e-05
1.473e-05
1.507e-05
1.544e-05
1.584e-05
1.627e-05
1.673e-05
1.722e-05
1.773e-05
1.826e-05
1.881e-05
1.939e-05
1.997e-05
2.057e-05
2.118e-05
2.179e-05
2.241e-05
2.301e-05
2.361e-05
2.419e-05
2.474e-05
2.527e-05
2.577e-05
8.937e-06
1.265e-05
1.309e-05
1.322e-05
1.334e-05
1.349e-05
1.368e-05
1.389e-05
1.414e-05
1.442e-05
1.473e-05
1.507e-05
1.544e-05
1.584e-05
1.627e-05
1.672e-05
1.721e-05
1.772e-05
1.825e-05
1.88e-05
1.937e-05
1.996e-05
2.056e-05
2.116e-05
2.177e-05
2.238e-05
2.299e-05
2.358e-05
2.416e-05
2.471e-05
2.524e-05
2.574e-05
8.935e-06
1.265e-05
1.309e-05
1.321e-05
1.334e-05
1.349e-05
1.367e-05
1.389e-05
1.413e-05
1.441e-05
1.472e-05
1.506e-05
1.543e-05
1.583e-05
1.626e-05
1.671e-05
1.719e-05
1.77e-05
1.823e-05
1.878e-05
1.935e-05
1.993e-05
2.053e-05
2.113e-05
2.174e-05
2.235e-05
2.295e-05
2.354e-05
2.411e-05
2.467e-05
2.519e-05
2.568e-05
8.803e-06
1.247e-05
1.29e-05
1.303e-05
1.316e-05
1.331e-05
1.35e-05
1.373e-05
1.398e-05
1.427e-05
1.459e-05
1.494e-05
1.533e-05
1.575e-05
1.619e-05
1.667e-05
1.717e-05
1.771e-05
1.826e-05
1.884e-05
1.944e-05
2.006e-05
2.069e-05
2.133e-05
2.198e-05
2.263e-05
2.327e-05
2.39e-05
2.451e-05
2.51e-05
2.567e-05
2.62e-05
8.803e-06
1.246e-05
1.29e-05
1.303e-05
1.315e-05
1.331e-05
1.35e-05
1.372e-05
1.398e-05
1.427e-05
1.459e-05
1.494e-05
1.533e-05
1.574e-05
1.619e-05
1.666e-05
1.717e-05
1.77e-05
1.826e-05
1.884e-05
1.944e-05
2.005e-05
2.068e-05
2.132e-05
2.197e-05
2.261e-05
2.325e-05
2.388e-05
2.449e-05
2.508e-05
2.565e-05
2.617e-05
8.801e-06
1.246e-05
1.29e-05
1.302e-05
1.315e-05
1.331e-05
1.35e-05
1.372e-05
1.398e-05
1.426e-05
1.458e-05
1.494e-05
1.532e-05
1.573e-05
1.618e-05
1.666e-05
1.716e-05
1.769e-05
1.824e-05
1.882e-05
1.942e-05
2.003e-05
2.066e-05
2.13e-05
2.194e-05
2.258e-05
2.322e-05
2.385e-05
2.446e-05
2.505e-05
2.561e-05
2.613e-05
8.799e-06
1.246e-05
1.289e-05
1.302e-05
1.315e-05
1.331e-05
1.349e-05
1.372e-05
1.397e-05
1.426e-05
1.458e-05
1.493e-05
1.531e-05
1.572e-05
1.617e-05
1.664e-05
1.714e-05
1.767e-05
1.823e-05
1.88e-05
1.94e-05
2.001e-05
2.063e-05
2.127e-05
2.191e-05
2.254e-05
2.318e-05
2.38e-05
2.441e-05
2.499e-05
2.555e-05
2.607e-05
8.649e-06
1.225e-05
1.268e-05
1.281e-05
1.294e-05
1.31e-05
1.33e-05
1.353e-05
1.38e-05
1.409e-05
1.443e-05
1.479e-05
1.52e-05
1.563e-05
1.61e-05
1.659e-05
1.712e-05
1.768e-05
1.827e-05
1.888e-05
1.951e-05
2.016e-05
2.082e-05
2.15e-05
2.219e-05
2.287e-05
2.355e-05
2.422e-05
2.488e-05
2.551e-05
2.611e-05
2.668e-05
8.648e-06
1.225e-05
1.268e-05
1.281e-05
1.294e-05
1.31e-05
1.33e-05
1.353e-05
1.379e-05
1.409e-05
1.442e-05
1.479e-05
1.519e-05
1.563e-05
1.609e-05
1.659e-05
1.712e-05
1.767e-05
1.826e-05
1.887e-05
1.95e-05
2.015e-05
2.081e-05
2.149e-05
2.217e-05
2.286e-05
2.354e-05
2.421e-05
2.486e-05
2.549e-05
2.609e-05
2.666e-05
8.647e-06
1.224e-05
1.267e-05
1.28e-05
1.294e-05
1.31e-05
1.329e-05
1.352e-05
1.379e-05
1.409e-05
1.442e-05
1.479e-05
1.519e-05
1.562e-05
1.608e-05
1.658e-05
1.711e-05
1.766e-05
1.824e-05
1.885e-05
1.948e-05
2.013e-05
2.079e-05
2.146e-05
2.214e-05
2.282e-05
2.35e-05
2.417e-05
2.482e-05
2.545e-05
2.604e-05
2.661e-05
8.645e-06
1.224e-05
1.267e-05
1.28e-05
1.293e-05
1.309e-05
1.329e-05
1.352e-05
1.378e-05
1.408e-05
1.441e-05
1.478e-05
1.518e-05
1.561e-05
1.607e-05
1.656e-05
1.709e-05
1.764e-05
1.822e-05
1.882e-05
1.945e-05
2.009e-05
2.075e-05
2.142e-05
2.21e-05
2.278e-05
2.345e-05
2.411e-05
2.476e-05
2.538e-05
2.597e-05
2.653e-05
8.475e-06
1.2e-05
1.243e-05
1.256e-05
1.27e-05
1.287e-05
1.307e-05
1.331e-05
1.359e-05
1.39e-05
1.424e-05
1.463e-05
1.505e-05
1.55e-05
1.599e-05
1.651e-05
1.707e-05
1.765e-05
1.827e-05
1.891e-05
1.958e-05
2.027e-05
2.098e-05
2.17e-05
2.243e-05
2.316e-05
2.389e-05
2.461e-05
2.531e-05
2.599e-05
2.664e-05
2.725e-05
8.475e-06
1.2e-05
1.243e-05
1.256e-05
1.27e-05
1.286e-05
1.307e-05
1.331e-05
1.358e-05
1.389e-05
1.424e-05
1.462e-05
1.504e-05
1.55e-05
1.598e-05
1.651e-05
1.706e-05
1.765e-05
1.826e-05
1.89e-05
1.957e-05
2.026e-05
2.096e-05
2.168e-05
2.241e-05
2.314e-05
2.387e-05
2.459e-05
2.529e-05
2.597e-05
2.661e-05
2.722e-05
8.473e-06
1.2e-05
1.242e-05
1.256e-05
1.269e-05
1.286e-05
1.307e-05
1.33e-05
1.358e-05
1.389e-05
1.424e-05
1.462e-05
1.503e-05
1.549e-05
1.597e-05
1.649e-05
1.705e-05
1.763e-05
1.824e-05
1.888e-05
1.955e-05
2.023e-05
2.094e-05
2.165e-05
2.238e-05
2.31e-05
2.383e-05
2.454e-05
2.524e-05
2.591e-05
2.656e-05
2.716e-05
8.471e-06
1.2e-05
1.242e-05
1.255e-05
1.269e-05
1.286e-05
1.306e-05
1.33e-05
1.357e-05
1.388e-05
1.423e-05
1.461e-05
1.502e-05
1.547e-05
1.596e-05
1.648e-05
1.703e-05
1.761e-05
1.822e-05
1.886e-05
1.952e-05
2.02e-05
2.09e-05
2.161e-05
2.233e-05
2.305e-05
2.377e-05
2.448e-05
2.517e-05
2.584e-05
2.648e-05
2.708e-05
8.283e-06
1.173e-05
1.215e-05
1.229e-05
1.243e-05
1.26e-05
1.282e-05
1.307e-05
1.335e-05
1.368e-05
1.404e-05
1.444e-05
1.488e-05
1.536e-05
1.587e-05
1.642e-05
1.7e-05
1.762e-05
1.828e-05
1.896e-05
1.967e-05
2.04e-05
2.116e-05
2.193e-05
2.271e-05
2.35e-05
2.429e-05
2.506e-05
2.582e-05
2.656e-05
2.726e-05
2.793e-05
8.282e-06
1.173e-05
1.215e-05
1.228e-05
1.243e-05
1.26e-05
1.281e-05
1.306e-05
1.335e-05
1.368e-05
1.404e-05
1.444e-05
1.488e-05
1.535e-05
1.586e-05
1.641e-05
1.7e-05
1.762e-05
1.827e-05
1.895e-05
1.966e-05
2.039e-05
2.114e-05
2.191e-05
2.269e-05
2.348e-05
2.426e-05
2.503e-05
2.579e-05
2.653e-05
2.723e-05
2.789e-05
8.28e-06
1.173e-05
1.215e-05
1.228e-05
1.242e-05
1.26e-05
1.281e-05
1.306e-05
1.335e-05
1.367e-05
1.403e-05
1.443e-05
1.487e-05
1.534e-05
1.585e-05
1.64e-05
1.698e-05
1.76e-05
1.825e-05
1.893e-05
1.963e-05
2.036e-05
2.111e-05
2.188e-05
2.265e-05
2.343e-05
2.421e-05
2.498e-05
2.573e-05
2.646e-05
2.716e-05
2.782e-05
8.278e-06
1.172e-05
1.214e-05
1.228e-05
1.242e-05
1.259e-05
1.281e-05
1.305e-05
1.334e-05
1.366e-05
1.402e-05
1.442e-05
1.485e-05
1.533e-05
1.583e-05
1.638e-05
1.696e-05
1.757e-05
1.822e-05
1.889e-05
1.959e-05
2.032e-05
2.106e-05
2.182e-05
2.259e-05
2.337e-05
2.414e-05
2.49e-05
2.565e-05
2.637e-05
2.706e-05
2.771e-05
8.071e-06
1.143e-05
1.185e-05
1.198e-05
1.213e-05
1.232e-05
1.254e-05
1.28e-05
1.31e-05
1.344e-05
1.382e-05
1.424e-05
1.47e-05
1.52e-05
1.574e-05
1.632e-05
1.694e-05
1.76e-05
1.829e-05
1.902e-05
1.977e-05
2.056e-05
2.137e-05
2.22e-05
2.304e-05
2.389e-05
2.474e-05
2.559e-05
2.642e-05
2.722e-05
2.799e-05
2.872e-05
8.07e-06
1.143e-05
1.184e-05
1.198e-05
1.213e-05
1.231e-05
1.253e-05
1.28e-05
1.309e-05
1.343e-05
1.381e-05
1.423e-05
1.469e-05
1.519e-05
1.573e-05
1.631e-05
1.693e-05
1.758e-05
1.828e-05
1.9e-05
1.976e-05
2.054e-05
2.135e-05
2.218e-05
2.302e-05
2.387e-05
2.471e-05
2.555e-05
2.638e-05
2.718e-05
2.795e-05
2.867e-05
8.069e-06
1.143e-05
1.184e-05
1.198e-05
1.213e-05
1.231e-05
1.253e-05
1.279e-05
1.309e-05
1.343e-05
1.381e-05
1.422e-05
1.468e-05
1.518e-05
1.572e-05
1.63e-05
1.691e-05
1.756e-05
1.825e-05
1.897e-05
1.973e-05
2.051e-05
2.131e-05
2.213e-05
2.297e-05
2.381e-05
2.465e-05
2.549e-05
2.631e-05
2.71e-05
2.786e-05
2.858e-05
8.066e-06
1.143e-05
1.184e-05
1.198e-05
1.212e-05
1.23e-05
1.252e-05
1.278e-05
1.308e-05
1.342e-05
1.38e-05
1.421e-05
1.467e-05
1.516e-05
1.57e-05
1.627e-05
1.689e-05
1.753e-05
1.822e-05
1.894e-05
1.968e-05
2.046e-05
2.125e-05
2.207e-05
2.29e-05
2.373e-05
2.457e-05
2.539e-05
2.621e-05
2.699e-05
2.774e-05
2.845e-05
7.841e-06
1.111e-05
1.151e-05
1.166e-05
1.181e-05
1.2e-05
1.223e-05
1.25e-05
1.282e-05
1.317e-05
1.357e-05
1.401e-05
1.45e-05
1.503e-05
1.56e-05
1.621e-05
1.687e-05
1.757e-05
1.831e-05
1.908e-05
1.989e-05
2.074e-05
2.161e-05
2.251e-05
2.342e-05
2.435e-05
2.528e-05
2.62e-05
2.71e-05
2.799e-05
2.884e-05
2.964e-05
7.84e-06
1.111e-05
1.151e-05
1.165e-05
1.181e-05
1.2e-05
1.223e-05
1.25e-05
1.282e-05
1.317e-05
1.357e-05
1.401e-05
1.449e-05
1.502e-05
1.559e-05
1.62e-05
1.686e-05
1.755e-05
1.829e-05
1.907e-05
1.988e-05
2.072e-05
2.159e-05
2.248e-05
2.339e-05
2.431e-05
2.524e-05
2.616e-05
2.706e-05
2.794e-05
2.878e-05
2.958e-05
7.838e-06
1.11e-05
1.151e-05
1.165e-05
1.18e-05
1.199e-05
1.223e-05
1.25e-05
1.281e-05
1.316e-05
1.356e-05
1.4e-05
1.448e-05
1.501e-05
1.557e-05
1.618e-05
1.684e-05
1.753e-05
1.826e-05
1.904e-05
1.984e-05
2.068e-05
2.154e-05
2.243e-05
2.334e-05
2.425e-05
2.517e-05
2.608e-05
2.698e-05
2.785e-05
2.868e-05
2.948e-05
7.835e-06
1.11e-05
1.15e-05
1.165e-05
1.18e-05
1.199e-05
1.222e-05
1.249e-05
1.28e-05
1.315e-05
1.355e-05
1.398e-05
1.446e-05
1.499e-05
1.555e-05
1.616e-05
1.681e-05
1.75e-05
1.822e-05
1.899e-05
1.979e-05
2.062e-05
2.148e-05
2.236e-05
2.325e-05
2.416e-05
2.506e-05
2.597e-05
2.685e-05
2.771e-05
2.854e-05
2.932e-05
7.592e-06
1.076e-05
1.116e-05
1.13e-05
1.146e-05
1.166e-05
1.19e-05
1.219e-05
1.252e-05
1.289e-05
1.331e-05
1.377e-05
1.428e-05
1.484e-05
1.544e-05
1.609e-05
1.679e-05
1.754e-05
1.833e-05
1.916e-05
2.004e-05
2.095e-05
2.189e-05
2.287e-05
2.386e-05
2.487e-05
2.589e-05
2.691e-05
2.791e-05
2.888e-05
2.982e-05
3.072e-05
7.591e-06
1.076e-05
1.115e-05
1.13e-05
1.146e-05
1.166e-05
1.19e-05
1.218e-05
1.251e-05
1.288e-05
1.33e-05
1.377e-05
1.427e-05
1.483e-05
1.543e-05
1.608e-05
1.678e-05
1.752e-05
1.831e-05
1.914e-05
2.001e-05
2.092e-05
2.187e-05
2.284e-05
2.383e-05
2.483e-05
2.585e-05
2.686e-05
2.785e-05
2.883e-05
2.976e-05
3.065e-05
7.589e-06
1.075e-05
1.115e-05
1.13e-05
1.146e-05
1.165e-05
1.19e-05
1.218e-05
1.251e-05
1.288e-05
1.329e-05
1.375e-05
1.426e-05
1.482e-05
1.542e-05
1.606e-05
1.676e-05
1.75e-05
1.828e-05
1.911e-05
1.997e-05
2.088e-05
2.181e-05
2.278e-05
2.376e-05
2.476e-05
2.576e-05
2.676e-05
2.775e-05
2.871e-05
2.964e-05
3.052e-05
7.586e-06
1.075e-05
1.115e-05
1.129e-05
1.145e-05
1.165e-05
1.189e-05
1.217e-05
1.25e-05
1.287e-05
1.328e-05
1.374e-05
1.424e-05
1.479e-05
1.539e-05
1.603e-05
1.672e-05
1.746e-05
1.823e-05
1.905e-05
1.991e-05
2.081e-05
2.173e-05
2.269e-05
2.366e-05
2.465e-05
2.564e-05
2.663e-05
2.76e-05
2.855e-05
2.946e-05
3.033e-05
7.325e-06
1.038e-05
1.077e-05
1.092e-05
1.109e-05
1.13e-05
1.155e-05
1.185e-05
1.219e-05
1.258e-05
1.302e-05
1.351e-05
1.405e-05
1.464e-05
1.528e-05
1.597e-05
1.672e-05
1.751e-05
1.836e-05
1.926e-05
2.02e-05
2.119e-05
2.222e-05
2.328e-05
2.437e-05
2.548e-05
2.661e-05
2.773e-05
2.884e-05
2.993e-05
3.098e-05
3.198e-05
7.324e-06
1.038e-05
1.077e-05
1.092e-05
1.109e-05
1.129e-05
1.155e-05
1.184e-05
1.219e-05
1.258e-05
1.302e-05
1.35e-05
1.404e-05
1.463e-05
1.527e-05
1.596e-05
1.67e-05
1.75e-05
1.834e-05
1.924e-05
2.018e-05
2.116e-05
2.218e-05
2.324e-05
2.433e-05
2.544e-05
2.655e-05
2.767e-05
2.878e-05
2.986e-05
3.09e-05
3.19e-05
7.322e-06
1.038e-05
1.077e-05
1.092e-05
1.108e-05
1.129e-05
1.154e-05
1.184e-05
1.218e-05
1.257e-05
1.301e-05
1.349e-05
1.403e-05
1.461e-05
1.525e-05
1.594e-05
1.668e-05
1.746e-05
1.83e-05
1.919e-05
2.013e-05
2.11e-05
2.212e-05
2.317e-05
2.425e-05
2.534e-05
2.645e-05
2.756e-05
2.865e-05
2.972e-05
3.075e-05
3.174e-05
7.319e-06
1.037e-05
1.076e-05
1.091e-05
1.108e-05
1.128e-05
1.153e-05
1.183e-05
1.217e-05
1.256e-05
1.299e-05
1.347e-05
1.401e-05
1.459e-05
1.522e-05
1.59e-05
1.664e-05
1.742e-05
1.825e-05
1.913e-05
2.006e-05
2.102e-05
2.203e-05
2.306e-05
2.413e-05
2.521e-05
2.63e-05
2.739e-05
2.847e-05
2.952e-05
3.054e-05
3.15e-05
7.041e-06
9.982e-06
1.036e-05
1.052e-05
1.069e-05
1.091e-05
1.117e-05
1.148e-05
1.184e-05
1.225e-05
1.272e-05
1.323e-05
1.38e-05
1.442e-05
1.51e-05
1.584e-05
1.664e-05
1.749e-05
1.84e-05
1.937e-05
2.039e-05
2.147e-05
2.259e-05
2.376e-05
2.496e-05
2.619e-05
2.743e-05
2.869e-05
2.993e-05
3.115e-05
3.233e-05
3.346e-05
7.04e-06
9.98e-06
1.036e-05
1.051e-05
1.069e-05
1.09e-05
1.117e-05
1.148e-05
1.184e-05
1.225e-05
1.271e-05
1.322e-05
1.379e-05
1.441e-05
1.509e-05
1.583e-05
1.662e-05
1.747e-05
1.838e-05
1.934e-05
2.036e-05
2.143e-05
2.255e-05
2.371e-05
2.491e-05
2.613e-05
2.737e-05
2.861e-05
2.985e-05
3.106e-05
3.224e-05
3.336e-05
7.038e-06
9.977e-06
1.036e-05
1.051e-05
1.068e-05
1.09e-05
1.116e-05
1.147e-05
1.183e-05
1.224e-05
1.27e-05
1.321e-05
1.377e-05
1.439e-05
1.507e-05
1.58e-05
1.659e-05
1.744e-05
1.834e-05
1.93e-05
2.031e-05
2.137e-05
2.248e-05
2.363e-05
2.481e-05
2.602e-05
2.725e-05
2.848e-05
2.97e-05
3.09e-05
3.206e-05
3.316e-05
7.035e-06
9.972e-06
1.035e-05
1.05e-05
1.068e-05
1.089e-05
1.115e-05
1.146e-05
1.182e-05
1.222e-05
1.268e-05
1.319e-05
1.375e-05
1.437e-05
1.504e-05
1.576e-05
1.654e-05
1.738e-05
1.828e-05
1.922e-05
2.022e-05
2.127e-05
2.237e-05
2.35e-05
2.467e-05
2.586e-05
2.706e-05
2.827e-05
2.948e-05
3.065e-05
3.179e-05
3.288e-05
6.74e-06
9.558e-06
9.928e-06
1.009e-05
1.027e-05
1.049e-05
1.077e-05
1.11e-05
1.147e-05
1.19e-05
1.239e-05
1.293e-05
1.353e-05
1.42e-05
1.492e-05
1.571e-05
1.656e-05
1.747e-05
1.846e-05
1.95e-05
2.062e-05
2.179e-05
2.302e-05
2.431e-05
2.564e-05
2.7e-05
2.84e-05
2.98e-05
3.12e-05
3.258e-05
3.393e-05
3.521e-05
6.739e-06
9.556e-06
9.926e-06
1.008e-05
1.026e-05
1.049e-05
1.077e-05
1.109e-05
1.147e-05
1.19e-05
1.238e-05
1.293e-05
1.352e-05
1.418e-05
1.491e-05
1.569e-05
1.654e-05
1.745e-05
1.843e-05
1.947e-05
2.058e-05
2.175e-05
2.298e-05
2.425e-05
2.558e-05
2.693e-05
2.832e-05
2.971e-05
3.11e-05
3.248e-05
3.381e-05
3.508e-05
6.737e-06
9.553e-06
9.923e-06
1.008e-05
1.026e-05
1.049e-05
1.076e-05
1.108e-05
1.146e-05
1.189e-05
1.237e-05
1.291e-05
1.351e-05
1.416e-05
1.488e-05
1.566e-05
1.65e-05
1.741e-05
1.838e-05
1.942e-05
2.051e-05
2.167e-05
2.289e-05
2.415e-05
2.546e-05
2.68e-05
2.817e-05
2.954e-05
3.092e-05
3.227e-05
3.359e-05
3.484e-05
6.734e-06
9.548e-06
9.917e-06
1.007e-05
1.025e-05
1.048e-05
1.075e-05
1.107e-05
1.145e-05
1.187e-05
1.235e-05
1.289e-05
1.348e-05
1.413e-05
1.484e-05
1.562e-05
1.645e-05
1.735e-05
1.831e-05
1.933e-05
2.042e-05
2.156e-05
2.275e-05
2.4e-05
2.529e-05
2.661e-05
2.795e-05
2.93e-05
3.065e-05
3.197e-05
3.326e-05
3.449e-05
6.424e-06
9.111e-06
9.472e-06
9.634e-06
9.822e-06
1.006e-05
1.035e-05
1.069e-05
1.108e-05
1.154e-05
1.205e-05
1.262e-05
1.325e-05
1.396e-05
1.472e-05
1.556e-05
1.648e-05
1.746e-05
1.852e-05
1.966e-05
2.087e-05
2.216e-05
2.352e-05
2.494e-05
2.642e-05
2.795e-05
2.951e-05
3.11e-05
3.269e-05
3.427e-05
3.58e-05
3.728e-05
6.422e-06
9.11e-06
9.47e-06
9.632e-06
9.819e-06
1.006e-05
1.034e-05
1.068e-05
1.108e-05
1.153e-05
1.204e-05
1.261e-05
1.324e-05
1.394e-05
1.471e-05
1.555e-05
1.646e-05
1.744e-05
1.849e-05
1.963e-05
2.083e-05
2.211e-05
2.346e-05
2.488e-05
2.635e-05
2.787e-05
2.942e-05
3.099e-05
3.257e-05
3.414e-05
3.566e-05
3.712e-05
6.42e-06
9.106e-06
9.466e-06
9.627e-06
9.815e-06
1.005e-05
1.034e-05
1.067e-05
1.107e-05
1.152e-05
1.203e-05
1.259e-05
1.322e-05
1.392e-05
1.468e-05
1.551e-05
1.641e-05
1.739e-05
1.844e-05
1.956e-05
2.075e-05
2.202e-05
2.336e-05
2.475e-05
2.621e-05
2.77e-05
2.924e-05
3.079e-05
3.234e-05
3.388e-05
3.538e-05
3.682e-05
6.417e-06
9.101e-06
9.46e-06
9.621e-06
9.807e-06
1.004e-05
1.033e-05
1.066e-05
1.105e-05
1.15e-05
1.2e-05
1.257e-05
1.319e-05
1.388e-05
1.464e-05
1.546e-05
1.635e-05
1.732e-05
1.835e-05
1.946e-05
2.064e-05
2.189e-05
2.32e-05
2.457e-05
2.6e-05
2.747e-05
2.897e-05
3.049e-05
3.201e-05
3.352e-05
3.498e-05
3.638e-05
6.092e-06
8.644e-06
8.994e-06
9.16e-06
9.355e-06
9.602e-06
9.902e-06
1.026e-05
1.067e-05
1.115e-05
1.168e-05
1.229e-05
1.296e-05
1.37e-05
1.452e-05
1.542e-05
1.64e-05
1.746e-05
1.861e-05
1.985e-05
2.117e-05
2.259e-05
2.409e-05
2.567e-05
2.733e-05
2.905e-05
3.082e-05
3.263e-05
3.445e-05
3.626e-05
3.803e-05
3.974e-05
6.091e-06
8.643e-06
8.992e-06
9.158e-06
9.353e-06
9.599e-06
9.898e-06
1.025e-05
1.067e-05
1.114e-05
1.168e-05
1.228e-05
1.295e-05
1.369e-05
1.45e-05
1.54e-05
1.637e-05
1.743e-05
1.858e-05
1.981e-05
2.113e-05
2.253e-05
2.402e-05
2.56e-05
2.724e-05
2.895e-05
3.071e-05
3.25e-05
3.43e-05
3.609e-05
3.785e-05
3.955e-05
6.088e-06
8.639e-06
8.988e-06
9.153e-06
9.348e-06
9.593e-06
9.891e-06
1.024e-05
1.066e-05
1.113e-05
1.166e-05
1.226e-05
1.292e-05
1.366e-05
1.447e-05
1.536e-05
1.633e-05
1.738e-05
1.851e-05
1.973e-05
2.103e-05
2.242e-05
2.39e-05
2.545e-05
2.707e-05
2.875e-05
3.048e-05
3.224e-05
3.402e-05
3.578e-05
3.751e-05
3.917e-05
6.085e-06
8.634e-06
8.982e-06
9.147e-06
9.34e-06
9.584e-06
9.88e-06
1.023e-05
1.064e-05
1.111e-05
1.164e-05
1.223e-05
1.289e-05
1.362e-05
1.442e-05
1.53e-05
1.626e-05
1.729e-05
1.841e-05
1.961e-05
2.09e-05
2.226e-05
2.371e-05
2.523e-05
2.682e-05
2.847e-05
3.016e-05
3.188e-05
3.361e-05
3.533e-05
3.701e-05
3.863e-05
5.747e-06
8.158e-06
8.496e-06
8.666e-06
8.869e-06
9.126e-06
9.438e-06
9.81e-06
1.024e-05
1.074e-05
1.131e-05
1.194e-05
1.265e-05
1.344e-05
1.431e-05
1.527e-05
1.632e-05
1.747e-05
1.872e-05
2.007e-05
2.152e-05
2.308e-05
2.475e-05
2.652e-05
2.838e-05
3.033e-05
3.235e-05
3.442e-05
3.652e-05
3.862e-05
4.069e-05
4.269e-05
5.746e-06
8.156e-06
8.494e-06
8.664e-06
8.867e-06
9.122e-06
9.434e-06
9.805e-06
1.024e-05
1.073e-05
1.13e-05
1.193e-05
1.264e-05
1.342e-05
1.429e-05
1.525e-05
1.629e-05
1.744e-05
1.868e-05
2.002e-05
2.146e-05
2.302e-05
2.467e-05
2.643e-05
2.828e-05
3.021e-05
3.221e-05
3.426e-05
3.634e-05
3.842e-05
4.047e-05
4.245e-05
5.743e-06
8.153e-06
8.49e-06
8.66e-06
8.861e-06
9.116e-06
9.427e-06
9.796e-06
1.023e-05
1.072e-05
1.128e-05
1.191e-05
1.261e-05
1.339e-05
1.425e-05
1.52e-05
1.624e-05
1.737e-05
1.86e-05
1.993e-05
2.136e-05
2.289e-05
2.452e-05
2.625e-05
2.807e-05
2.997e-05
3.194e-05
3.395e-05
3.599e-05
3.803e-05
4.004e-05
4.198e-05
5.74e-06
8.147e-06
8.484e-06
8.653e-06
8.853e-06
9.107e-06
9.415e-06
9.782e-06
1.021e-05
1.07e-05
1.125e-05
1.188e-05
1.258e-05
1.335e-05
1.42e-05
1.514e-05
1.616e-05
1.728e-05
1.849e-05
1.979e-05
2.12e-05
2.27e-05
2.43e-05
2.599e-05
2.777e-05
2.963e-05
3.154e-05
3.35e-05
3.549e-05
3.747e-05
3.941e-05
4.129e-05
5.39e-06
7.655e-06
7.981e-06
8.156e-06
8.366e-06
8.632e-06
8.958e-06
9.345e-06
9.797e-06
1.032e-05
1.091e-05
1.158e-05
1.233e-05
1.317e-05
1.409e-05
5.389e-06
7.653e-06
7.979e-06
8.153e-06
8.363e-06
8.629e-06
8.953e-06
9.34e-06
9.791e-06
1.031e-05
1.09e-05
1.157e-05
1.231e-05
1.315e-05
5.387e-06
7.65e-06
7.975e-06
8.148e-06
8.357e-06
8.622e-06
8.945e-06
9.33e-06
9.778e-06
1.029e-05
1.088e-05
1.154e-05
1.229e-05
5.383e-06
7.644e-06
7.969e-06
8.141e-06
8.349e-06
8.612e-06
8.933e-06
9.315e-06
9.76e-06
1.027e-05
1.085e-05
1.151e-05
9.343e-06
1.323e-05
1.368e-05
1.38e-05
1.391e-05
1.405e-05
1.421e-05
1.44e-05
1.462e-05
1.487e-05
1.515e-05
1.545e-05
1.578e-05
1.613e-05
1.651e-05
1.691e-05
1.733e-05
1.778e-05
1.824e-05
1.872e-05
1.921e-05
1.971e-05
2.022e-05
2.074e-05
2.125e-05
2.177e-05
2.227e-05
2.277e-05
2.325e-05
2.371e-05
2.415e-05
2.455e-05
9.34e-06
1.322e-05
1.367e-05
1.379e-05
1.39e-05
1.404e-05
1.421e-05
1.44e-05
1.462e-05
1.487e-05
1.514e-05
1.544e-05
1.577e-05
1.612e-05
1.65e-05
1.69e-05
1.732e-05
1.776e-05
1.822e-05
1.87e-05
1.919e-05
1.969e-05
2.02e-05
2.071e-05
2.122e-05
2.174e-05
2.224e-05
2.273e-05
2.321e-05
2.367e-05
2.41e-05
2.451e-05
9.338e-06
1.322e-05
1.367e-05
1.379e-05
1.39e-05
1.404e-05
1.42e-05
1.439e-05
1.461e-05
1.486e-05
1.513e-05
1.543e-05
1.576e-05
1.611e-05
1.649e-05
1.689e-05
1.731e-05
1.775e-05
1.821e-05
1.868e-05
1.917e-05
1.967e-05
2.017e-05
2.068e-05
2.119e-05
2.17e-05
2.22e-05
2.27e-05
2.317e-05
2.363e-05
2.406e-05
2.446e-05
9.335e-06
1.322e-05
1.367e-05
1.378e-05
1.39e-05
1.403e-05
1.419e-05
1.439e-05
1.461e-05
1.485e-05
1.513e-05
1.542e-05
1.575e-05
1.61e-05
1.648e-05
1.687e-05
1.729e-05
1.773e-05
1.819e-05
1.866e-05
1.914e-05
1.964e-05
2.014e-05
2.065e-05
2.116e-05
2.167e-05
2.217e-05
2.265e-05
2.313e-05
2.358e-05
2.401e-05
2.441e-05
9.332e-06
1.321e-05
1.366e-05
1.378e-05
1.389e-05
1.403e-05
1.419e-05
1.438e-05
1.46e-05
1.484e-05
1.512e-05
1.542e-05
1.574e-05
1.609e-05
1.646e-05
1.686e-05
1.727e-05
1.771e-05
1.817e-05
1.864e-05
1.912e-05
1.961e-05
2.011e-05
2.062e-05
2.113e-05
2.163e-05
2.213e-05
2.261e-05
2.308e-05
2.353e-05
2.396e-05
2.436e-05
9.329e-06
1.321e-05
1.366e-05
1.377e-05
1.388e-05
1.402e-05
1.418e-05
1.437e-05
1.459e-05
1.484e-05
1.511e-05
1.541e-05
1.573e-05
1.608e-05
1.645e-05
1.684e-05
1.726e-05
1.769e-05
1.814e-05
1.861e-05
1.909e-05
1.959e-05
2.008e-05
2.059e-05
2.109e-05
2.159e-05
2.208e-05
2.257e-05
2.303e-05
2.348e-05
2.39e-05
2.43e-05
9.325e-06
1.32e-05
1.365e-05
1.377e-05
1.388e-05
1.401e-05
1.418e-05
1.437e-05
1.458e-05
1.483e-05
1.51e-05
1.54e-05
1.572e-05
1.606e-05
1.643e-05
1.683e-05
1.724e-05
1.767e-05
1.812e-05
1.859e-05
1.907e-05
1.956e-05
2.005e-05
2.055e-05
2.106e-05
2.155e-05
2.204e-05
2.252e-05
2.299e-05
2.343e-05
2.385e-05
2.424e-05
9.322e-06
1.32e-05
1.365e-05
1.376e-05
1.387e-05
1.401e-05
1.417e-05
1.436e-05
1.458e-05
1.482e-05
1.509e-05
1.539e-05
1.571e-05
1.605e-05
1.642e-05
1.681e-05
1.723e-05
1.766e-05
1.81e-05
1.857e-05
1.905e-05
1.953e-05
2.003e-05
2.052e-05
2.102e-05
2.152e-05
2.2e-05
2.248e-05
2.294e-05
2.338e-05
2.38e-05
2.419e-05
9.319e-06
1.319e-05
1.364e-05
1.376e-05
1.387e-05
1.4e-05
1.416e-05
1.435e-05
1.457e-05
1.481e-05
1.508e-05
1.538e-05
1.57e-05
1.604e-05
1.641e-05
1.68e-05
1.721e-05
1.764e-05
1.809e-05
1.855e-05
1.902e-05
1.951e-05
2e-05
2.049e-05
2.099e-05
2.148e-05
2.197e-05
2.244e-05
2.29e-05
2.334e-05
2.375e-05
2.414e-05
9.315e-06
1.319e-05
1.363e-05
1.375e-05
1.386e-05
1.399e-05
1.416e-05
1.434e-05
1.456e-05
1.48e-05
1.507e-05
1.536e-05
1.568e-05
1.603e-05
1.639e-05
1.678e-05
1.719e-05
1.762e-05
1.807e-05
1.853e-05
1.9e-05
1.948e-05
1.997e-05
2.046e-05
2.096e-05
2.145e-05
2.193e-05
2.24e-05
2.286e-05
2.329e-05
2.371e-05
2.409e-05
9.301e-06
1.316e-05
1.361e-05
1.373e-05
1.384e-05
1.397e-05
1.413e-05
1.432e-05
1.453e-05
1.477e-05
1.504e-05
1.533e-05
1.565e-05
1.599e-05
1.636e-05
1.675e-05
1.715e-05
1.758e-05
1.802e-05
1.848e-05
1.895e-05
1.943e-05
1.992e-05
2.041e-05
2.09e-05
2.139e-05
2.187e-05
2.234e-05
2.279e-05