/*--------------------------------*- C++ -*----------------------------------*\
  =========                 |
  \\      /  F ield         | OpenFOAM: The Open Source CFD Toolbox
   \\    /   O peration     | Website:  https://openfoam.org
    \\  /    A nd           | Version:  6
     \\/     M anipulation  |
\*---------------------------------------------------------------------------*/
FoamFile
{
    version     2.0;
    format      ascii;
    class       volScalarField;
    location    "10";
    object      T;
}
// * * * * * * * * * * * * * * * * * * * * * * * * * * * * * * * * * * * * * //

dimensions      [0 0 0 1 0 0 0];

internalField   nonuniform List<scalar> 
16128
(
2.38
2.248
2.118
1.989
1.864
1.743
1.627
1.517
1.413
1.315
1.225
1.141
1.065
0.9963
0.9345
0.8796
0.8315
2.519
2.387
2.256
2.125
1.997
1.873
1.752
1.637
1.527
1.423
1.325
1.235
1.151
1.075
1.006
0.9443
0.8894
0.8412
2.661
2.531
2.401
2.27
2.141
2.014
1.89
1.77
1.655
1.546
1.442
1.345
1.255
1.171
1.095
1.026
0.9641
0.909
0.8605
2.804
2.678
2.55
2.421
2.292
2.164
2.038
1.916
1.797
1.683
1.574
1.471
1.374
1.284
1.201
1.125
1.056
0.9938
0.9384
0.8897
3.684
3.669
3.639
3.595
3.538
3.469
3.387
3.295
3.193
3.083
2.965
2.841
2.712
2.58
2.445
2.31
2.175
2.041
1.91
1.782
1.659
1.542
1.43
1.325
1.226
1.135
1.052
0.976
0.9076
0.8466
0.7927
0.7457
3.686
3.67
3.64
3.597
3.54
3.471
3.39
3.298
3.197
3.087
2.969
2.846
2.717
2.586
2.452
2.317
2.182
2.049
1.918
1.791
1.668
1.551
1.44
1.334
1.236
1.145
1.062
0.986
0.9175
0.8564
0.8023
0.7552
3.688
3.672
3.643
3.6
3.544
3.475
3.395
3.304
3.203
3.094
2.978
2.856
2.728
2.598
2.465
2.331
2.197
2.065
1.935
1.809
1.687
1.57
1.459
1.354
1.256
1.166
1.082
1.006
0.9374
0.876
0.8217
0.7742
3.691
3.676
3.647
3.604
3.549
3.481
3.402
3.312
3.213
3.106
2.991
2.87
2.744
2.615
2.484
2.352
2.22
2.089
1.96
1.835
1.714
1.598
1.488
1.384
1.286
1.196
1.112
1.036
0.9672
0.9056
0.8509
0.803
3.653
3.637
3.607
3.562
3.503
3.431
3.348
3.253
3.148
3.034
2.913
2.785
2.653
2.517
2.379
2.241
2.102
1.966
1.832
1.702
1.577
1.458
1.345
1.238
1.14
1.048
0.9651
0.8896
0.8219
0.7619
0.7092
0.6635
3.654
3.639
3.608
3.563
3.505
3.434
3.35
3.256
3.151
3.038
2.917
2.79
2.659
2.524
2.386
2.248
2.11
1.974
1.841
1.711
1.586
1.467
1.354
1.248
1.15
1.059
0.9752
0.8996
0.8318
0.7716
0.7187
0.6728
3.657
3.641
3.611
3.566
3.509
3.438
3.355
3.262
3.158
3.046
2.926
2.801
2.67
2.536
2.4
2.262
2.126
1.991
1.858
1.729
1.605
1.487
1.374
1.268
1.17
1.079
0.9953
0.9196
0.8515
0.791
0.7377
0.6915
3.66
3.644
3.615
3.571
3.514
3.444
3.363
3.27
3.168
3.058
2.94
2.816
2.687
2.554
2.42
2.284
2.149
2.015
1.884
1.756
1.633
1.515
1.404
1.298
1.2
1.109
1.026
0.9496
0.8812
0.8203
0.7666
0.7197
3.624
3.607
3.576
3.53
3.469
3.395
3.309
3.212
3.104
2.987
2.862
2.732
2.596
2.457
2.315
2.173
2.032
1.892
1.756
1.624
1.497
1.376
1.261
1.155
1.055
0.9641
0.8812
0.8064
0.7397
0.6809
0.6296
0.5855
3.625
3.609
3.577
3.531
3.471
3.398
3.312
3.215
3.107
2.991
2.867
2.737
2.602
2.463
2.322
2.181
2.04
1.901
1.765
1.633
1.506
1.386
1.272
1.165
1.065
0.9743
0.8912
0.8163
0.7494
0.6904
0.6389
0.5945
3.627
3.611
3.58
3.534
3.475
3.402
3.317
3.221
3.115
2.999
2.877
2.747
2.613
2.476
2.336
2.196
2.056
1.918
1.783
1.652
1.526
1.405
1.292
1.185
1.086
0.9946
0.9113
0.8362
0.7689
0.7095
0.6575
0.6127
3.63
3.615
3.584
3.539
3.48
3.409
3.325
3.23
3.125
3.012
2.89
2.763
2.631
2.495
2.357
2.218
2.08
1.943
1.809
1.679
1.554
1.435
1.322
1.215
1.116
1.025
0.9416
0.8661
0.7984
0.7384
0.6858
0.6403
3.595
3.579
3.546
3.499
3.437
3.361
3.273
3.172
3.062
2.942
2.814
2.68
2.54
2.398
2.253
2.108
1.963
1.821
1.682
1.548
1.419
1.296
1.181
1.073
0.974
0.883
0.8005
0.7267
0.6612
0.6039
0.5543
0.512
3.597
3.58
3.548
3.501
3.439
3.363
3.275
3.176
3.065
2.946
2.819
2.685
2.546
2.404
2.26
2.116
1.972
1.83
1.691
1.557
1.429
1.306
1.191
1.084
0.9842
0.8931
0.8106
0.7365
0.6708
0.6132
0.5633
0.5207
3.599
3.583
3.551
3.504
3.443
3.368
3.281
3.182
3.073
2.954
2.828
2.696
2.559
2.418
2.275
2.131
1.988
1.847
1.71
1.576
1.448
1.326
1.212
1.104
1.005
0.9134
0.8306
0.7562
0.69
0.6319
0.5814
0.5382
3.603
3.586
3.555
3.509
3.449
3.375
3.289
3.191
3.084
2.967
2.843
2.712
2.576
2.437
2.296
2.154
2.013
1.873
1.737
1.605
1.478
1.356
1.242
1.135
1.035
0.944
0.8608
0.7859
0.7191
0.6602
0.609
0.5649
3.569
3.552
3.519
3.47
3.406
3.328
3.238
3.135
3.021
2.898
2.767
2.629
2.487
2.341
2.193
2.045
1.897
1.752
1.611
1.474
1.344
1.22
1.104
0.9954
0.8959
0.8053
0.7236
0.6509
0.5869
0.5313
0.4836
0.4434
3.57
3.553
3.52
3.472
3.408
3.331
3.24
3.138
3.025
2.902
2.772
2.635
2.493
2.348
2.201
2.053
1.906
1.761
1.62
1.484
1.354
1.23
1.114
1.006
0.9062
0.8154
0.7336
0.6606
0.5963
0.5403
0.4923
0.4517
3.573
3.556
3.523
3.475
3.412
3.336
3.246
3.145
3.033
2.911
2.782
2.646
2.506
2.362
2.215
2.069
1.923
1.779
1.639
1.504
1.374
1.25
1.134
1.026
0.9267
0.8357
0.7535
0.68
0.6151
0.5585
0.5098
0.4685
3.576
3.56
3.528
3.48
3.418
3.343
3.254
3.155
3.044
2.924
2.797
2.663
2.524
2.382
2.237
2.092
1.948
1.806
1.667
1.532
1.403
1.281
1.165
1.057
0.9575
0.8662
0.7835
0.7094
0.6437
0.5862
0.5365
0.4942
3.544
3.526
3.492
3.442
3.377
3.297
3.204
3.099
2.982
2.856
2.722
2.582
2.436
2.287
2.135
1.984
1.834
1.686
1.542
1.404
1.271
1.146
1.029
0.9208
0.8215
0.7314
0.6508
0.5794
0.5172
0.4635
0.418
0.38
3.545
3.528
3.494
3.444
3.379
3.3
3.207
3.102
2.987
2.861
2.728
2.587
2.442
2.294
2.143
1.992
1.842
1.695
1.552
1.414
1.282
1.157
1.04
0.9312
0.8317
0.7415
0.6606
0.5889
0.5263
0.4723
0.4263
0.3879
3.548
3.531
3.497
3.448
3.384
3.305
3.213
3.109
2.995
2.87
2.738
2.599
2.455
2.308
2.158
2.009
1.86
1.714
1.571
1.433
1.302
1.177
1.06
0.952
0.8523
0.7617
0.6803
0.608
0.5447
0.4899
0.4431
0.4039
3.551
3.535
3.502
3.453
3.39
3.312
3.222
3.119
3.006
2.884
2.753
2.616
2.474
2.329
2.181
2.033
1.886
1.741
1.6
1.463
1.332
1.208
1.092
0.9831
0.8832
0.7921
0.71
0.6369
0.5725
0.5167
0.4688
0.4284
3.52
3.503
3.468
3.417
3.35
3.268
3.173
3.065
2.946
2.817
2.68
2.536
2.387
2.235
2.081
1.926
1.773
1.623
1.477
1.336
1.203
1.076
0.9587
0.8501
0.7511
0.6618
0.5824
0.5127
0.4523
0.4008
0.3577
0.3222
3.522
3.504
3.469
3.419
3.352
3.271
3.176
3.069
2.95
2.822
2.685
2.542
2.394
2.242
2.088
1.935
1.782
1.632
1.487
1.347
1.213
1.087
0.9692
0.8605
0.7613
0.6718
0.592
0.5219
0.4611
0.4092
0.3656
0.3296
3.524
3.507
3.473
3.422
3.357
3.276
3.182
3.076
2.958
2.831
2.696
2.554
2.407
2.256
2.104
1.951
1.8
1.651
1.506
1.367
1.234
1.108
0.9901
0.8813
0.7818
0.6918
0.6114
0.5406
0.4789
0.4261
0.3816
0.3447
3.528
3.511
3.477
3.428
3.363
3.284
3.191
3.086
2.971
2.845
2.712
2.572
2.426
2.278
2.127
1.976
1.826
1.679
1.535
1.397
1.264
1.139
1.022
0.9126
0.8127
0.722
0.6408
0.5689
0.506
0.4519
0.4061
0.3679
3.498
3.48
3.445
3.393
3.325
3.241
3.144
3.033
2.912
2.78
2.64
2.493
2.341
2.186
2.029
1.871
1.716
1.563
1.415
1.273
1.138
1.01
0.8922
0.7836
0.6851
0.5968
0.5188
0.4508
0.3926
0.3436
0.303
0.2701
3.5
3.482
3.447
3.395
3.327
3.244
3.147
3.037
2.916
2.785
2.646
2.499
2.348
2.193
2.037
1.88
1.725
1.573
1.425
1.283
1.148
1.021
0.9028
0.794
0.6952
0.6066
0.5282
0.4599
0.4012
0.3516
0.3104
0.277
3.503
3.485
3.45
3.399
3.331
3.249
3.153
3.045
2.925
2.795
2.657
2.512
2.362
2.208
2.053
1.897
1.743
1.592
1.445
1.304
1.169
1.042
0.9238
0.8149
0.7156
0.6264
0.5473
0.478
0.4183
0.3677
0.3255
0.2911
3.507
3.489
3.455
3.404
3.338
3.257
3.162
3.055
2.937
2.809
2.673
2.53
2.382
2.23
2.077
1.923
1.77
1.62
1.475
1.334
1.2
1.074
0.9554
0.8462
0.7464
0.6563
0.5761
0.5056
0.4445
0.3924
0.3487
0.3128
3.478
3.46
3.424
3.371
3.301
3.216
3.117
3.004
2.88
2.746
2.603
2.453
2.298
2.14
1.98
1.82
1.662
1.507
1.357
1.213
1.077
0.9487
0.8302
0.7217
0.6238
0.5367
0.4602
0.3943
0.3384
0.2919
0.254
0.2239
3.48
3.462
3.426
3.373
3.303
3.219
3.12
3.008
2.884
2.751
2.608
2.459
2.305
2.148
1.988
1.829
1.671
1.517
1.367
1.224
1.087
0.9593
0.8407
0.7321
0.6339
0.5464
0.4695
0.403
0.3466
0.2995
0.261
0.2302
3.483
3.465
3.429
3.377
3.308
3.224
3.126
3.015
2.893
2.761
2.62
2.472
2.319
2.163
2.005
1.847
1.69
1.536
1.387
1.244
1.108
0.9806
0.8619
0.7529
0.6542
0.5659
0.4881
0.4206
0.363
0.3147
0.275
0.2432
3.487
3.469
3.434
3.382
3.315
3.232
3.136
3.026
2.906
2.775
2.636
2.491
2.34
2.185
2.029
1.873
1.718
1.565
1.418
1.275
1.14
1.012
0.8936
0.7842
0.6847
0.5954
0.5163
0.4474
0.3881
0.3382
0.2969
0.2634
3.46
3.442
3.405
3.351
3.28
3.193
3.092
2.977
2.851
2.714
2.568
2.416
2.259
2.098
1.935
1.773
1.612
1.455
1.303
1.158
1.02
0.8917
0.773
0.6648
0.5677
0.4818
0.4071
0.3433
0.2899
0.2461
0.2109
0.1835
3.462
3.443
3.407
3.353
3.282
3.196
3.095
2.981
2.855
2.719
2.574
2.423
2.266
2.105
1.943
1.782
1.622
1.465
1.314
1.168
1.031
0.9024
0.7836
0.6752
0.5777
0.4913
0.4161
0.3517
0.2976
0.2531
0.2173
0.1893
3.465
3.446
3.41
3.357
3.287
3.201
3.102
2.989
2.864
2.729
2.586
2.435
2.28
2.121
1.96
1.8
1.641
1.485
1.334
1.189
1.052
0.9238
0.8047
0.6959
0.5977
0.5105
0.4342
0.3686
0.3132
0.2674
0.2303
0.2011
3.469
3.451
3.415
3.363
3.294
3.21
3.111
3
2.877
2.744
2.603
2.454
2.301
2.144
1.985
1.826
1.669
1.514
1.365
1.221
1.084
0.9558
0.8365
0.7271
0.628
0.5396
0.4618
0.3945
0.3373
0.2896
0.2506
0.2197
3.444
3.425
3.387
3.332
3.26
3.172
3.069
2.953
2.824
2.685
2.537
2.382
2.222
2.059
1.894
1.729
1.567
1.408
1.254
1.107
0.969
0.8398
0.721
0.6132
0.517
0.4325
0.3596
0.298
0.2471
0.206
0.1737
0.149
3.445
3.426
3.389
3.334
3.263
3.175
3.072
2.957
2.829
2.69
2.543
2.389
2.23
2.067
1.903
1.738
1.576
1.418
1.265
1.118
0.9798
0.8506
0.7316
0.6235
0.5269
0.4418
0.3683
0.306
0.2544
0.2125
0.1794
0.1541
3.448
3.43
3.393
3.339
3.268
3.181
3.079
2.964
2.838
2.701
2.555
2.402
2.244
2.083
1.92
1.757
1.596
1.438
1.285
1.139
1.001
0.872
0.7528
0.6441
0.5467
0.4606
0.3859
0.3222
0.2691
0.2258
0.1913
0.1647
3.453
3.434
3.398
3.345
3.275
3.189
3.089
2.976
2.851
2.716
2.572
2.422
2.266
2.106
1.945
1.784
1.624
1.468
1.317
1.171
1.033
0.9043
0.7846
0.6753
0.5767
0.4892
0.4127
0.3472
0.292
0.2466
0.2101
0.1816
3.429
3.41
3.372
3.316
3.243
3.153
3.049
2.931
2.8
2.659
2.509
2.352
2.19
2.024
1.857
1.691
1.526
1.365
1.21
1.062
0.9231
0.7935
0.6747
0.5674
0.472
0.3889
0.3179
0.2585
0.2101
0.1717
0.1421
0.1201
3.431
3.412
3.374
3.318
3.245
3.156
3.052
2.935
2.805
2.665
2.515
2.359
2.198
2.033
1.866
1.7
1.536
1.376
1.221
1.073
0.9339
0.8043
0.6853
0.5776
0.4818
0.3981
0.3263
0.2662
0.2169
0.1777
0.1473
0.1245
3.434
3.415
3.378
3.322
3.25
3.162
3.059
2.943
2.814
2.675
2.527
2.372
2.212
2.049
1.883
1.718
1.555
1.396
1.242
1.095
0.9556
0.8258
0.7064
0.5981
0.5014
0.4165
0.3433
0.2817
0.2308
0.1899
0.158
0.1339
3.438
3.42
3.383
3.329
3.258
3.171
3.069
2.955
2.828
2.691
2.545
2.392
2.234
2.072
1.909
1.746
1.584
1.426
1.273
1.127
0.988
0.8582
0.7383
0.6291
0.531
0.4445
0.3694
0.3056
0.2525
0.2093
0.1752
0.1491
3.416
3.397
3.358
3.302
3.228
3.137
3.031
2.912
2.78
2.637
2.485
2.326
2.162
1.994
1.825
1.657
1.49
1.328
1.172
1.023
0.8831
0.7532
0.6344
0.5276
0.4332
0.3515
0.2822
0.2249
0.1789
0.1431
0.1161
0.09653
3.418
3.399
3.36
3.304
3.23
3.14
3.035
2.916
2.784
2.642
2.491
2.333
2.169
2.002
1.834
1.666
1.5
1.339
1.183
1.034
0.894
0.764
0.645
0.5378
0.4428
0.3604
0.2903
0.2322
0.1853
0.1485
0.1206
0.1003
3.421
3.402
3.364
3.308
3.235
3.146
3.042
2.924
2.794
2.653
2.503
2.346
2.184
2.019
1.852
1.685
1.52
1.359
1.204
1.056
0.9157
0.7856
0.6661
0.5581
0.4621
0.3784
0.3068
0.247
0.1983
0.1597
0.1301
0.1083
3.425
3.407
3.369
3.315
3.243
3.155
3.052
2.936
2.808
2.669
2.521
2.367
2.206
2.043
1.878
1.713
1.55
1.39
1.236
1.088
0.9483
0.818
0.6979
0.5889
0.4915
0.4059
0.3321
0.27
0.2188
0.1777
0.1458
0.1219
3.405
3.386
3.347
3.29
3.215
3.123
3.016
2.896
2.762
2.618
2.464
2.304
2.138
1.969
1.798
1.628
1.46
1.297
1.14
0.9899
0.8493
0.7192
0.6006
0.4943
0.4008
0.3203
0.2526
0.1973
0.1534
0.1199
0.09521
0.07785
3.407
3.387
3.349
3.292
3.217
3.126
3.02
2.9
2.767
2.623
2.471
2.311
2.146
1.977
1.807
1.638
1.47
1.307
1.15
1.001
0.8603
0.7301
0.6112
0.5044
0.4103
0.329
0.2605
0.2042
0.1593
0.1247
0.09908
0.08088
3.41
3.391
3.353
3.296
3.223
3.132
3.027
2.908
2.776
2.634
2.483
2.325
2.161
1.994
1.825
1.656
1.49
1.328
1.172
1.023
0.8821
0.7517
0.6323
0.5246
0.4294
0.3466
0.2764
0.2182
0.1714
0.1349
0.1075
0.08772
3.415
3.396
3.358
3.303
3.23
3.141
3.037
2.92
2.79
2.65
2.501
2.345
2.183
2.018
1.851
1.685
1.52
1.359
1.204
1.055
0.9149
0.7842
0.664
0.5552
0.4583
0.3736
0.3011
0.2404
0.1909
0.1517
0.1217
0.09978
3.396
3.376
3.337
3.28
3.204
3.112
3.004
2.882
2.748
2.602
2.448
2.286
2.119
1.948
1.776
1.605
1.436
1.272
1.114
0.9632
0.8223
0.6922
0.5738
0.468
0.3752
0.2958
0.2294
0.1756
0.1335
0.1019
0.07912
0.06355
3.398
3.378
3.339
3.282
3.207
3.115
3.008
2.887
2.753
2.608
2.454
2.293
2.126
1.957
1.785
1.615
1.446
1.282
1.124
0.9742
0.8333
0.703
0.5843
0.478
0.3846
0.3043
0.237
0.1821
0.1389
0.1062
0.0824
0.06594
3.401
3.382
3.343
3.286
3.212
3.121
3.015
2.895
2.762
2.619
2.466
2.307
2.142
1.973
1.803
1.634
1.466
1.303
1.146
0.9961
0.8552
0.7246
0.6053
0.498
0.4034
0.3216
0.2525
0.1956
0.1503
0.1155
0.08977
0.07167
3.406
3.387
3.349
3.293
3.22
3.13
3.025
2.907
2.776
2.635
2.485
2.327
2.164
1.998
1.83
1.662
1.496
1.334
1.178
1.029
0.8881
0.7571
0.637
0.5284
0.4321
0.3482
0.2766
0.217
0.1688
0.1311
0.1028
0.08237
3.389
3.369
3.33
3.272
3.196
3.103
2.995
2.872
2.737
2.591
2.435
2.272
2.104
1.933
1.76
1.588
1.418
1.253
1.094
0.9436
0.8025
0.6723
0.5542
0.4489
0.3569
0.2782
0.2128
0.1601
0.1192
0.08879
0.06737
0.05306
3.391
3.371
3.332
3.274
3.199
3.106
2.999
2.877
2.742
2.596
2.442
2.279
2.112
1.941
1.769
1.597
1.428
1.264
1.105
0.9546
0.8135
0.6832
0.5647
0.4588
0.3661
0.2866
0.2202
0.1664
0.1242
0.09268
0.07016
0.05492
3.394
3.374
3.336
3.279
3.204
3.113
3.006
2.885
2.752
2.607
2.454
2.293
2.127
1.958
1.787
1.617
1.449
1.285
1.127
0.9765
0.8354
0.7047
0.5856
0.4787
0.3847
0.3036
0.2354
0.1794
0.1351
0.1013
0.07669
0.0597
3.399
3.379
3.341
3.285
3.211
3.121
3.016
2.897
2.766
2.624
2.472
2.314
2.15
1.983
1.814
1.645
1.479
1.316
1.159
1.009
0.8683
0.7372
0.6172
0.509
0.4131
0.3298
0.259
0.2002
0.1529
0.1161
0.08871
0.06935
3.384
3.364
3.324
3.266
3.19
3.097
2.988
2.865
2.73
2.583
2.427
2.264
2.095
1.923
1.749
1.577
1.407
1.241
1.082
0.9312
0.7901
0.6601
0.5423
0.4374
0.3461
0.2682
0.2035
0.1513
0.1108
0.0807
0.05966
0.0458
3.385
3.366
3.326
3.269
3.193
3.1
2.992
2.87
2.735
2.588
2.433
2.271
2.103
1.931
1.759
1.586
1.417
1.252
1.093
0.9423
0.8011
0.6709
0.5527
0.4473
0.3552
0.2765
0.2107
0.1574
0.1156
0.08434
0.06212
0.04727
3.389
3.369
3.33
3.273
3.198
3.106
2.999
2.878
2.744
2.6
2.446
2.285
2.118
1.948
1.777
1.606
1.437
1.273
1.115
0.9642
0.823
0.6924
0.5735
0.4671
0.3737
0.2932
0.2256
0.1702
0.1261
0.09253
0.06812
0.0514
3.393
3.374
3.336
3.28
3.206
3.115
3.01
2.89
2.759
2.616
2.464
2.305
2.141
1.973
1.804
1.634
1.467
1.304
1.147
0.9971
0.8559
0.7249
0.605
0.4972
0.4018
0.3191
0.2489
0.1907
0.1436
0.107
0.07968
0.06048
3.38
3.36
3.321
3.263
3.187
3.094
2.985
2.862
2.726
2.579
2.423
2.259
2.091
1.918
1.745
1.572
1.402
1.236
1.077
0.9264
0.7854
0.6556
0.5381
0.4338
0.343
0.2658
0.2017
0.1499
0.1092
0.07837
0.05618
0.04133
3.382
3.362
3.323
3.265
3.189
3.097
2.988
2.866
2.731
2.585
2.429
2.266
2.098
1.927
1.754
1.582
1.412
1.247
1.088
0.9374
0.7964
0.6663
0.5485
0.4436
0.3521
0.274
0.2089
0.156
0.1141
0.08199
0.05854
0.04257
3.385
3.366
3.327
3.27
3.195
3.103
2.996
2.874
2.74
2.596
2.442
2.281
2.114
1.944
1.772
1.601
1.432
1.268
1.11
0.9594
0.8183
0.6878
0.5692
0.4632
0.3703
0.2906
0.2236
0.1686
0.1245
0.09018
0.06448
0.04639
3.39
3.371
3.332
3.276
3.202
3.112
3.006
2.887
2.755
2.612
2.46
2.301
2.137
1.969
1.799
1.63
1.463
1.3
1.142
0.9922
0.8511
0.7202
0.6006
0.4931
0.3983
0.3162
0.2467
0.1889
0.142
0.1048
0.07632
0.05568
3.378
3.359
3.319
3.261
3.185
3.092
2.984
2.861
2.725
2.579
2.423
2.259
2.091
1.919
1.746
1.573
1.403
1.238
1.079
0.9282
0.7874
0.6579
0.5407
0.4366
0.3463
0.2697
0.2063
0.1551
0.1146
0.08281
0.05797
0.03924
3.38
3.36
3.321
3.264
3.188
3.096
2.987
2.865
2.73
2.584
2.429
2.267
2.099
1.927
1.755
1.583
1.413
1.248
1.09
0.9392
0.7984
0.6686
0.551
0.4464
0.3553
0.2778
0.2134
0.1611
0.1195
0.0866
0.06054
0.04038
3.383
3.364
3.325
3.268
3.193
3.102
2.995
2.874
2.74
2.595
2.442
2.281
2.114
1.944
1.773
1.602
1.434
1.269
1.111
0.9611
0.8202
0.69
0.5717
0.466
0.3735
0.2943
0.228
0.1737
0.13
0.09506
0.06691
0.0442
3.388
3.369
3.331
3.275
3.201
3.111
3.005
2.886
2.754
2.612
2.46
2.301
2.137
1.969
1.8
1.631
1.464
1.301
1.144
0.9939
0.853
0.7223
0.603
0.4958
0.4014
0.3198
0.2508
0.1938
0.1474
0.11
0.0797
0.05464
2.944
2.824
2.7
2.575
2.448
2.321
2.195
2.071
1.949
1.832
1.719
1.611
1.509
1.413
1.324
1.241
1.165
1.096
1.034
0.978
0.929
3.079
2.966
2.849
2.728
2.605
2.48
2.356
2.232
2.11
1.991
1.876
1.764
1.658
1.557
1.462
1.373
1.291
1.215
1.146
1.084
1.028
0.9786
3.205
3.101
2.991
2.877
2.76
2.64
2.518
2.397
2.276
2.157
2.041
1.927
1.818
1.714
1.614
1.52
1.433
1.351
1.276
1.207
1.144
1.088
1.039
3.321
3.227
3.126
3.02
2.909
2.796
2.679
2.562
2.444
2.326
2.211
2.097
1.987
1.88
1.778
1.68
1.588
1.501
1.421
1.346
1.278
1.216
1.16
1.11
3.34
3.249
3.153
3.051
2.944
2.835
2.723
2.609
2.496
2.382
2.27
2.16
2.053
1.949
1.85
1.754
1.664
1.579
1.5
1.427
1.359
1.297
1.242
1.192
3.439
3.359
3.273
3.181
3.083
2.982
2.877
2.77
2.661
2.552
2.443
2.335
2.229
2.126
2.026
1.929
1.837
1.749
1.666
1.589
1.517
1.45
1.39
1.335
1.286
3.521
3.454
3.378
3.297
3.209
3.117
3.02
2.921
2.819
2.715
2.611
2.508
2.405
2.303
2.204
2.108
2.015
1.926
1.842
1.762
1.686
1.616
1.552
1.492
1.438
1.39
3.587
3.531
3.467
3.397
3.32
3.238
3.151
3.06
2.966
2.87
2.772
2.674
2.576
2.478
2.382
2.288
2.196
2.107
2.022
1.941
1.864
1.792
1.724
1.662
1.604
1.552
1.505
3.634
3.59
3.538
3.478
3.413
3.341
3.265
3.184
3.099
3.011
2.921
2.83
2.738
2.646
2.554
2.464
2.375
2.288
2.205
2.124
2.047
1.974
1.905
1.84
1.78
1.725
1.674
1.629
3.663
3.63
3.589
3.541
3.487
3.426
3.361
3.29
3.215
3.137
3.056
2.973
2.888
2.803
2.717
2.632
2.548
2.465
2.384
2.305
2.23
2.157
2.088
2.023
1.962
1.905
1.852
1.804
1.761
3.675
3.651
3.621
3.584
3.541
3.491
3.436
3.377
3.312
3.244
3.173
3.099
3.023
2.946
2.867
2.789
2.71
2.633
2.556
2.481
2.409
2.339
2.271
2.207
2.146
2.089
2.035
1.986
1.941
1.9
3.669
3.655
3.634
3.607
3.574
3.535
3.491
3.442
3.389
3.331
3.27
3.206
3.139
3.071
3.001
2.93
2.859
2.788
2.717
2.648
2.58
2.513
2.449
2.387
2.328
2.272
2.219
2.17
2.124
2.082
2.043
3.647
3.641
3.628
3.61
3.587
3.558
3.524
3.486
3.443
3.396
3.345
3.291
3.235
3.176
3.115
3.053
2.99
2.927
2.863
2.8
2.738
2.676
2.617
2.559
2.503
2.449
2.398
2.35
2.304
2.263
2.224
2.189
3.612
3.606
3.596
3.58
3.56
3.536
3.507
3.474
3.437
3.396
3.353
3.306
3.257
3.206
3.154
3.099
3.044
2.989
2.933
2.877
2.822
2.768
2.714
2.663
2.612
2.564
2.518
2.475
2.434
2.396
2.361
2.329
3.577
3.572
3.563
3.55
3.533
3.512
3.487
3.458
3.427
3.391
3.354
3.313
3.27
3.226
3.179
3.132
3.083
3.034
2.984
2.935
2.885
2.837
2.789
2.742
2.697
2.653
2.612
2.572
2.535
2.5
2.468
2.439
3.694
3.68
3.651
3.61
3.555
3.489
3.411
3.323
3.226
3.12
3.007
2.889
2.765
2.639
2.51
2.379
2.249
2.12
1.994
1.87
1.75
1.636
1.526
1.423
1.326
1.236
1.152
1.076
1.007
0.9453
0.8902
0.8419
3.698
3.684
3.656
3.616
3.563
3.498
3.422
3.336
3.241
3.138
3.028
2.912
2.791
2.667
2.541
2.413
2.286
2.159
2.034
1.913
1.795
1.682
1.574
1.472
1.375
1.286
1.203
1.127
1.058
0.9955
0.94
0.8912
3.703
3.689
3.662
3.622
3.571
3.508
3.434
3.351
3.258
3.158
3.051
2.938
2.821
2.7
2.577
2.453
2.328
2.205
2.083
1.964
1.848
1.737
1.631
1.53
1.435
1.346
1.264
1.188
1.119
1.056
1.001
0.9513
3.706
3.693
3.667
3.628
3.579
3.518
3.447
3.366
3.277
3.18
3.077
2.968
2.854
2.737
2.618
2.497
2.377
2.256
2.138
2.022
1.909
1.8
1.696
1.597
1.504
1.416
1.334
1.259
1.19
1.128
1.072
1.023
3.709
3.696
3.671
3.634
3.586
3.528
3.46
3.383
3.297
3.204
3.105
3
2.891
2.778
2.663
2.547
2.43
2.314
2.199
2.087
1.978
1.872
1.77
1.673
1.582
1.496
1.415
1.341
1.273
1.211
1.155
1.105
3.71
3.697
3.674
3.639
3.593
3.538
3.473
3.399
3.318
3.229
3.134
3.034
2.93
2.822
2.712
2.6
2.488
2.377
2.267
2.158
2.053
1.95
1.852
1.758
1.669
1.585
1.506
1.433
1.366
1.305
1.249
1.2
3.709
3.697
3.674
3.641
3.599
3.546
3.485
3.415
3.338
3.254
3.164
3.069
2.97
2.868
2.763
2.657
2.55
2.444
2.339
2.235
2.134
2.035
1.941
1.85
1.764
1.682
1.606
1.535
1.469
1.409
1.354
1.306
3.705
3.694
3.673
3.642
3.601
3.552
3.495
3.429
3.357
3.278
3.193
3.104
3.011
2.914
2.816
2.716
2.615
2.514
2.414
2.316
2.22
2.126
2.036
1.949
1.866
1.788
1.714
1.645
1.582
1.523
1.47
1.422
3.697
3.687
3.667
3.639
3.601
3.556
3.502
3.441
3.374
3.3
3.222
3.139
3.052
2.962
2.87
2.776
2.682
2.587
2.493
2.401
2.31
2.222
2.136
2.054
1.975
1.9
1.83
1.764
1.703
1.647
1.596
1.549
3.685
3.676
3.658
3.631
3.597
3.555
3.506
3.45
3.388
3.321
3.248
3.172
3.091
3.008
2.923
2.836
2.749
2.661
2.574
2.488
2.403
2.32
2.24
2.163
2.089
2.019
1.952
1.89
1.832
1.778
1.729
1.685
3.668
3.66
3.643
3.62
3.588
3.55
3.506
3.455
3.399
3.338
3.272
3.202
3.129
3.053
2.975
2.896
2.816
2.735
2.655
2.576
2.498
2.421
2.347
2.276
2.207
2.141
2.079
2.021
1.966
1.916
1.87
1.828
3.645
3.638
3.623
3.602
3.574
3.54
3.501
3.455
3.405
3.35
3.291
3.229
3.163
3.095
3.025
2.954
2.881
2.808
2.736
2.664
2.593
2.523
2.455
2.39
2.327
2.266
2.209
2.155
2.105
2.058
2.015
1.976
3.615
3.609
3.596
3.578
3.554
3.524
3.489
3.45
3.406
3.358
3.306
3.251
3.193
3.133
3.071
3.008
2.944
2.879
2.814
2.75
2.686
2.623
2.562
2.503
2.446
2.391
2.339
2.29
2.244
2.201
2.162
2.126
3.579
3.574
3.563
3.547
3.527
3.502
3.472
3.438
3.401
3.359
3.315
3.267
3.217
3.165
3.111
3.056
3
2.943
2.886
2.829
2.773
2.718
2.663
2.611
2.56
2.511
2.464
2.42
2.378
2.339
2.304
2.271
3.543
3.539
3.53
3.516
3.499
3.477
3.452
3.423
3.39
3.354
3.316
3.274
3.231
3.185
3.138
3.089
3.04
2.99
2.939
2.889
2.839
2.789
2.74
2.693
2.647
2.603
2.56
2.52
2.482
2.447
2.414
2.384
3.664
3.649
3.619
3.576
3.521
3.452
3.372
3.282
3.182
3.073
2.957
2.835
2.709
2.578
2.446
2.313
2.179
2.048
1.918
1.792
1.67
1.554
1.443
1.338
1.24
1.15
1.066
0.9899
0.9212
0.8598
0.8055
0.758
3.668
3.653
3.625
3.583
3.528
3.462
3.384
3.295
3.197
3.091
2.978
2.859
2.735
2.608
2.478
2.347
2.217
2.087
1.96
1.836
1.716
1.601
1.491
1.388
1.291
1.2
1.117
1.041
0.9717
0.9098
0.8548
0.8067
3.672
3.658
3.63
3.59
3.537
3.472
3.396
3.31
3.215
3.112
3.002
2.887
2.766
2.642
2.516
2.388
2.261
2.134
2.01
1.889
1.771
1.658
1.549
1.447
1.351
1.261
1.178
1.102
1.033
0.9706
0.9152
0.8664
3.676
3.662
3.636
3.596
3.545
3.483
3.41
3.327
3.235
3.136
3.029
2.917
2.801
2.681
2.558
2.435
2.311
2.188
2.067
1.948
1.833
1.723
1.617
1.516
1.421
1.332
1.25
1.174
1.105
1.043
0.9868
0.9375
3.679
3.666
3.64
3.603
3.553
3.494
3.423
3.344
3.256
3.16
3.058
2.951
2.839
2.723
2.605
2.486
2.366
2.248
2.13
2.015
1.904
1.796
1.692
1.594
1.501
1.414
1.332
1.257
1.188
1.126
1.07
1.021
3.68
3.668
3.643
3.607
3.561
3.504
3.437
3.361
3.277
3.186
3.089
2.986
2.879
2.768
2.655
2.541
2.427
2.313
2.2
2.089
1.981
1.877
1.776
1.681
1.59
1.504
1.425
1.351
1.283
1.221
1.165
1.116
3.679
3.667
3.644
3.61
3.566
3.512
3.449
3.378
3.298
3.212
3.12
3.022
2.921
2.816
2.709
2.6
2.491
2.382
2.274
2.168
2.065
1.964
1.868
1.775
1.687
1.604
1.527
1.455
1.388
1.327
1.272
1.223
3.676
3.664
3.643
3.611
3.57
3.519
3.46
3.393
3.318
3.237
3.151
3.059
2.963
2.865
2.763
2.661
2.558
2.455
2.353
2.252
2.154
2.058
1.966
1.877
1.793
1.713
1.638
1.568
1.503
1.444
1.39
1.342
3.668
3.658
3.638
3.608
3.57
3.523
3.468
3.405
3.336
3.261
3.18
3.095
3.006
2.914
2.819
2.723
2.627
2.53
2.434
2.339
2.247
2.156
2.069
1.985
1.905
1.829
1.757
1.69
1.628
1.57
1.518
1.471
3.656
3.647
3.628
3.601
3.566
3.523
3.472
3.415
3.351
3.282
3.208
3.129
3.047
2.962
2.875
2.786
2.696
2.607
2.518
2.429
2.343
2.258
2.177
2.098
2.022
1.951
1.883
1.819
1.76
1.705
1.656
1.611
3.639
3.63
3.613
3.589
3.557
3.518
3.473
3.421
3.363
3.3
3.233
3.161
3.086
3.009
2.929
2.848
2.766
2.684
2.602
2.521
2.441
2.363
2.287
2.214
2.144
2.077
2.014
1.954
1.898
1.847
1.8
1.758
3.615
3.608
3.593
3.571
3.543
3.508
3.468
3.421
3.37
3.314
3.253
3.189
3.122
3.053
2.981
2.908
2.834
2.759
2.685
2.612
2.539
2.468
2.399
2.332
2.267
2.206
2.148
2.093
2.041
1.994
1.95
1.91
3.585
3.578
3.565
3.547
3.522
3.492
3.456
3.416
3.371
3.322
3.269
3.213
3.154
3.092
3.029
2.964
2.899
2.832
2.766
2.7
2.635
2.572
2.509
2.449
2.391
2.335
2.282
2.232
2.185
2.142
2.102
2.065
3.548
3.542
3.531
3.516
3.495
3.469
3.439
3.404
3.366
3.324
3.278
3.23
3.179
3.125
3.07
3.014
2.957
2.899
2.841
2.783
2.726
2.669
2.614
2.56
2.508
2.458
2.411
2.366
2.324
2.284
2.248
2.215
3.511
3.507
3.497
3.484
3.466
3.444
3.418
3.388
3.355
3.319
3.279
3.237
3.193
3.146
3.098
3.049
2.999
2.947
2.896
2.845
2.794
2.743
2.694
2.645
2.598
2.553
2.51
2.469
2.431
2.395
2.362
2.332
3.635
3.619
3.589
3.545
3.487
3.417
3.335
3.242
3.139
3.027
2.908
2.783
2.653
2.52
2.384
2.248
2.111
1.977
1.845
1.716
1.592
1.474
1.361
1.256
1.157
1.066
0.9822
0.9063
0.8381
0.7774
0.724
0.6777
3.639
3.624
3.595
3.552
3.495
3.427
3.347
3.256
3.155
3.046
2.93
2.808
2.681
2.55
2.417
2.284
2.15
2.018
1.888
1.761
1.639
1.522
1.411
1.306
1.208
1.117
1.033
0.9572
0.8884
0.827
0.7728
0.7255
3.644
3.629
3.6
3.559
3.504
3.438
3.36
3.272
3.174
3.068
2.955
2.836
2.713
2.586
2.456
2.326
2.195
2.066
1.939
1.815
1.695
1.58
1.47
1.366
1.269
1.179
1.095
1.019
0.9497
0.8877
0.8327
0.7845
3.648
3.633
3.606
3.566
3.513
3.449
3.374
3.289
3.195
3.092
2.983
2.868
2.749
2.626
2.5
2.374
2.247
2.121
1.998
1.877
1.759
1.647
1.539
1.437
1.341
1.251
1.168
1.092
1.022
0.9597
0.9041
0.8551
3.651
3.637
3.611
3.572
3.522
3.46
3.388
3.307
3.216
3.118
3.013
2.903
2.788
2.669
2.549
2.427
2.304
2.183
2.063
1.946
1.832
1.722
1.616
1.516
1.422
1.333
1.251
1.175
1.106
1.044
0.9876
0.9381
3.652
3.639
3.614
3.578
3.53
3.471
3.402
3.325
3.239
3.145
3.045
2.94
2.83
2.716
2.601
2.484
2.367
2.25
2.134
2.021
1.911
1.805
1.702
1.605
1.513
1.426
1.345
1.27
1.202
1.139
1.083
1.034
3.652
3.639
3.616
3.581
3.536
3.48
3.415
3.342
3.26
3.172
3.077
2.977
2.873
2.766
2.656
2.545
2.433
2.321
2.211
2.103
1.997
1.895
1.796
1.702
1.613
1.528
1.449
1.376
1.309
1.247
1.191
1.142
3.648
3.636
3.614
3.582
3.539
3.487
3.427
3.358
3.281
3.198
3.109
3.015
2.917
2.816
2.713
2.608
2.502
2.397
2.292
2.189
2.089
1.991
1.897
1.807
1.721
1.639
1.563
1.492
1.426
1.366
1.311
1.263
3.64
3.63
3.609
3.579
3.54
3.492
3.435
3.371
3.3
3.223
3.14
3.053
2.962
2.867
2.771
2.672
2.573
2.475
2.377
2.28
2.185
2.093
2.004
1.918
1.836
1.758
1.685
1.617
1.554
1.495
1.442
1.395
3.628
3.619
3.6
3.572
3.536
3.492
3.44
3.381
3.316
3.245
3.169
3.089
3.005
2.917
2.828
2.737
2.646
2.554
2.463
2.373
2.284
2.198
2.115
2.034
1.957
1.884
1.815
1.75
1.69
1.634
1.583
1.537
3.611
3.602
3.585
3.56
3.527
3.488
3.441
3.388
3.329
3.264
3.195
3.122
3.045
2.966
2.885
2.802
2.718
2.634
2.55
2.467
2.386
2.306
2.229
2.154
2.082
2.014
1.95
1.889
1.832
1.78
1.732
1.689
3.587
3.579
3.564
3.542
3.513
3.478
3.436
3.389
3.336
3.279
3.217
3.151
3.083
3.012
2.938
2.864
2.788
2.712
2.636
2.561
2.487
2.415
2.344
2.276
2.21
2.147
2.088
2.032
1.979
1.931
1.886
1.846
3.556
3.549
3.536
3.517
3.492
3.461
3.425
3.384
3.338
3.287
3.233
3.176
3.116
3.053
2.988
2.922
2.855
2.788
2.72
2.653
2.587
2.522
2.458
2.397
2.338
2.281
2.227
2.176
2.128
2.084
2.043
2.006
3.518
3.513
3.502
3.485
3.464
3.438
3.407
3.372
3.333
3.289
3.243
3.194
3.142
3.087
3.031
2.974
2.916
2.857
2.797
2.739
2.68
2.623
2.566
2.512
2.459
2.408
2.36
2.314
2.271
2.231
2.194
2.16
3.481
3.476
3.467
3.453
3.435
3.413
3.386
3.356
3.322
3.285
3.245
3.202
3.157
3.109
3.06
3.01
2.959
2.907
2.855
2.802
2.75
2.699
2.649
2.6
2.552
2.506
2.462
2.421
2.382
2.345
2.311
2.281
3.607
3.591
3.56
3.515
3.456
3.384
3.299
3.204
3.098
2.983
2.861
2.733
2.6
2.463
2.324
2.184
2.045
1.908
1.773
1.642
1.516
1.396
1.282
1.176
1.076
0.9849
0.9014
0.8259
0.7584
0.6986
0.6464
0.6013
3.612
3.596
3.566
3.522
3.464
3.394
3.311
3.218
3.115
3.003
2.884
2.758
2.628
2.494
2.358
2.222
2.085
1.95
1.817
1.689
1.564
1.446
1.333
1.227
1.128
1.036
0.9526
0.8766
0.8083
0.7476
0.6943
0.6481
3.616
3.601
3.572
3.529
3.473
3.405
3.325
3.235
3.134
3.026
2.91
2.788
2.661
2.531
2.399
2.265
2.132
2
1.87
1.744
1.622
1.505
1.393
1.288
1.19
1.099
1.015
0.9383
0.8693
0.8078
0.7534
0.706
3.621
3.606
3.578
3.537
3.483
3.417
3.34
3.252
3.156
3.051
2.939
2.821
2.699
2.572
2.444
2.315
2.185
2.057
1.93
1.807
1.687
1.573
1.463
1.36
1.262
1.172
1.088
1.011
0.9419
0.8796
0.8243
0.7759
3.624
3.61
3.583
3.544
3.492
3.429
3.355
3.271
3.178
3.078
2.97
2.857
2.739
2.618
2.494
2.369
2.244
2.12
1.997
1.878
1.762
1.65
1.542
1.441
1.345
1.255
1.172
1.096
1.026
0.9637
0.9077
0.8584
3.626
3.613
3.587
3.549
3.5
3.44
3.37
3.29
3.201
3.105
3.003
2.895
2.782
2.666
2.548
2.428
2.308
2.189
2.071
1.956
1.843
1.735
1.631
1.531
1.438
1.35
1.268
1.192
1.123
1.06
1.004
0.9541
3.625
3.613
3.589
3.553
3.506
3.45
3.383
3.308
3.224
3.134
3.036
2.934
2.827
2.717
2.605
2.491
2.377
2.263
2.15
2.04
1.932
1.827
1.727
1.631
1.54
1.454
1.374
1.3
1.231
1.169
1.113
1.063
3.622
3.61
3.587
3.554
3.51
3.457
3.395
3.324
3.246
3.161
3.07
2.974
2.873
2.77
2.664
2.556
2.448
2.341
2.234
2.129
2.026
1.926
1.83
1.738
1.651
1.568
1.49
1.418
1.351
1.29
1.235
1.185
3.614
3.603
3.582
3.552
3.511
3.462
3.404
3.339
3.266
3.187
3.102
3.013
2.919
2.822
2.724
2.623
2.522
2.421
2.321
2.222
2.125
2.031
1.94
1.853
1.769
1.69
1.615
1.546
1.481
1.422
1.368
1.32
3.602
3.592
3.573
3.545
3.508
3.463
3.41
3.349
3.283
3.21
3.132
3.05
2.964
2.875
2.783
2.69
2.597
2.503
2.41
2.318
2.228
2.14
2.054
1.972
1.894
1.819
1.748
1.682
1.621
1.564
1.513
1.466
3.585
3.576
3.558
3.533
3.499
3.458
3.411
3.356
3.296
3.23
3.159
3.084
3.006
2.925
2.842
2.757
2.671
2.586
2.5
2.415
2.332
2.251
2.172
2.096
2.023
1.953
1.887
1.825
1.768
1.714
1.666
1.621
3.56
3.552
3.537
3.514
3.485
3.449
3.406
3.358
3.304
3.245
3.182
3.115
3.045
2.972
2.898
2.821
2.744
2.667
2.589
2.513
2.437
2.363
2.291
2.222
2.155
2.091
2.03
1.973
1.919
1.87
1.825
1.783
3.529
3.522
3.509
3.489
3.463
3.432
3.395
3.353
3.306
3.255
3.199
3.141
3.079
3.015
2.949
2.882
2.814
2.745
2.676
2.608
2.54
2.474
2.409
2.347
2.286
2.228
2.173
2.121
2.073
2.028
1.986
1.948
3.49
3.485
3.473
3.457
3.435
3.408
3.377
3.341
3.301
3.257
3.21
3.159
3.106
3.051
2.994
2.936
2.876
2.816
2.756
2.696
2.637
2.578
2.521
2.465
2.411
2.36
2.311
2.264
2.22
2.179
2.142
2.108
3.452
3.447
3.438
3.424
3.405
3.383
3.356
3.325
3.29
3.253
3.212
3.168
3.122
3.074
3.024
2.973
2.921
2.868
2.815
2.762
2.709
2.657
2.606
2.556
2.507