/*--------------------------------*- C++ -*----------------------------------*\
  =========                 |
  \\      /  F ield         | OpenFOAM: The Open Source CFD Toolbox
   \\    /   O peration     | Website:  https://openfoam.org
    \\  /    A nd           | Version:  6
     \\/     M anipulation  |
\*---------------------------------------------------------------------------*/
FoamFile
{
    version     2.0;
    format      ascii;
    class       volScalarField;
    location    "10";
    object      Umag;
}
// * * * * * * * * * * * * * * * * * * * * * * * * * * * * * * * * * * * * * //

dimensions      [0 0 0 0 0 0 0];

internalField   nonuniform List<scalar> 
16128
(
1.486e-05
1.598e-05
1.722e-05
1.858e-05
2.007e-05
2.168e-05
2.344e-05
2.533e-05
2.736e-05
2.952e-05
3.181e-05
3.421e-05
3.67e-05
3.926e-05
4.185e-05
4.442e-05
4.693e-05
1.381e-05
1.483e-05
1.595e-05
1.719e-05
1.854e-05
2.001e-05
2.162e-05
2.336e-05
2.523e-05
2.724e-05
2.939e-05
3.165e-05
3.403e-05
3.649e-05
3.902e-05
4.158e-05
4.412e-05
4.66e-05
1.286e-05
1.377e-05
1.478e-05
1.589e-05
1.711e-05
1.844e-05
1.99e-05
2.148e-05
2.32e-05
2.504e-05
2.702e-05
2.912e-05
3.135e-05
3.367e-05
3.609e-05
3.856e-05
4.105e-05
4.353e-05
4.595e-05
1.2e-05
1.281e-05
1.371e-05
1.47e-05
1.58e-05
1.7e-05
1.831e-05
1.974e-05
2.129e-05
2.297e-05
2.477e-05
2.67e-05
2.875e-05
3.091e-05
3.316e-05
3.55e-05
3.789e-05
4.03e-05
4.269e-05
4.502e-05
4.4e-06
6.837e-06
7.259e-06
7.452e-06
7.667e-06
7.937e-06
8.268e-06
8.663e-06
9.127e-06
9.662e-06
1.027e-05
1.097e-05
1.175e-05
1.263e-05
1.361e-05
1.47e-05
1.591e-05
1.725e-05
1.873e-05
2.036e-05
2.214e-05
2.409e-05
2.621e-05
2.85e-05
3.097e-05
3.36e-05
3.639e-05
3.93e-05
4.232e-05
4.539e-05
4.847e-05
5.15e-05
4.398e-06
6.836e-06
7.257e-06
7.45e-06
7.664e-06
7.933e-06
8.264e-06
8.658e-06
9.12e-06
9.654e-06
1.026e-05
1.096e-05
1.174e-05
1.261e-05
1.359e-05
1.467e-05
1.588e-05
1.721e-05
1.868e-05
2.029e-05
2.206e-05
2.399e-05
2.609e-05
2.836e-05
3.08e-05
3.341e-05
3.616e-05
3.904e-05
4.202e-05
4.505e-05
4.809e-05
5.107e-05
4.396e-06
6.832e-06
7.253e-06
7.445e-06
7.658e-06
7.926e-06
8.255e-06
8.647e-06
9.107e-06
9.637e-06
1.024e-05
1.093e-05
1.17e-05
1.257e-05
1.354e-05
1.461e-05
1.58e-05
1.712e-05
1.857e-05
2.016e-05
2.191e-05
2.381e-05
2.587e-05
2.81e-05
3.049e-05
3.304e-05
3.573e-05
3.854e-05
4.144e-05
4.439e-05
4.735e-05
5.024e-05
4.393e-06
6.827e-06
7.247e-06
7.438e-06
7.65e-06
7.916e-06
8.242e-06
8.631e-06
9.087e-06
9.613e-06
1.021e-05
1.089e-05
1.166e-05
1.251e-05
1.347e-05
1.453e-05
1.57e-05
1.699e-05
1.842e-05
1.998e-05
2.168e-05
2.353e-05
2.554e-05
2.771e-05
3.003e-05
3.25e-05
3.51e-05
3.781e-05
4.061e-05
4.344e-05
4.628e-05
4.906e-05
4.068e-06
6.326e-06
6.726e-06
6.921e-06
7.143e-06
7.422e-06
7.764e-06
8.175e-06
8.657e-06
9.215e-06
9.856e-06
1.058e-05
1.141e-05
1.234e-05
1.338e-05
1.455e-05
1.585e-05
1.73e-05
1.891e-05
2.069e-05
2.267e-05
2.484e-05
2.722e-05
2.983e-05
3.265e-05
3.57e-05
3.896e-05
4.241e-05
4.6e-05
4.97e-05
5.343e-05
5.712e-05
4.067e-06
6.324e-06
6.724e-06
6.918e-06
7.139e-06
7.418e-06
7.76e-06
8.169e-06
8.649e-06
9.206e-06
9.844e-06
1.057e-05
1.139e-05
1.232e-05
1.335e-05
1.451e-05
1.581e-05
1.725e-05
1.885e-05
2.062e-05
2.257e-05
2.472e-05
2.708e-05
2.966e-05
3.246e-05
3.547e-05
3.868e-05
4.208e-05
4.562e-05
4.926e-05
5.294e-05
5.657e-05
4.065e-06
6.321e-06
6.72e-06
6.913e-06
7.133e-06
7.41e-06
7.751e-06
8.157e-06
8.635e-06
9.188e-06
9.822e-06
1.054e-05
1.136e-05
1.227e-05
1.33e-05
1.445e-05
1.573e-05
1.715e-05
1.872e-05
2.047e-05
2.239e-05
2.45e-05
2.682e-05
2.934e-05
3.207e-05
3.501e-05
3.815e-05
4.145e-05
4.49e-05
4.843e-05
5.199e-05
5.55e-05
4.062e-06
6.316e-06
6.714e-06
6.906e-06
7.125e-06
7.4e-06
7.737e-06
8.141e-06
8.614e-06
9.162e-06
9.789e-06
1.05e-05
1.131e-05
1.221e-05
1.322e-05
1.435e-05
1.561e-05
1.7e-05
1.854e-05
2.025e-05
2.212e-05
2.418e-05
2.643e-05
2.888e-05
3.152e-05
3.436e-05
3.737e-05
4.055e-05
4.385e-05
4.723e-05
5.063e-05
5.398e-05
3.732e-06
5.808e-06
6.185e-06
6.382e-06
6.609e-06
6.897e-06
7.252e-06
7.677e-06
8.177e-06
8.758e-06
9.427e-06
1.019e-05
1.106e-05
1.204e-05
1.315e-05
1.439e-05
1.579e-05
1.736e-05
1.912e-05
2.108e-05
2.326e-05
2.569e-05
2.839e-05
3.136e-05
3.462e-05
3.818e-05
4.202e-05
4.613e-05
5.047e-05
5.497e-05
5.955e-05
6.412e-05
3.731e-06
5.806e-06
6.183e-06
6.379e-06
6.606e-06
6.893e-06
7.247e-06
7.67e-06
8.169e-06
8.748e-06
9.414e-06
1.017e-05
1.104e-05
1.202e-05
1.312e-05
1.436e-05
1.575e-05
1.73e-05
1.904e-05
2.099e-05
2.315e-05
2.556e-05
2.822e-05
3.116e-05
3.438e-05
3.789e-05
4.168e-05
4.572e-05
4.999e-05
5.441e-05
5.892e-05
6.339e-05
3.729e-06
5.802e-06
6.179e-06
6.374e-06
6.6e-06
6.886e-06
7.237e-06
7.658e-06
8.154e-06
8.729e-06
9.39e-06
1.014e-05
1.1e-05
1.197e-05
1.306e-05
1.428e-05
1.565e-05
1.719e-05
1.89e-05
2.081e-05
2.294e-05
2.53e-05
2.791e-05
3.077e-05
3.392e-05
3.733e-05
4.101e-05
4.494e-05
4.907e-05
5.334e-05
5.769e-05
6.201e-05
3.726e-06
5.797e-06
6.173e-06
6.367e-06
6.591e-06
6.875e-06
7.223e-06
7.641e-06
8.132e-06
8.701e-06
9.355e-06
1.01e-05
1.094e-05
1.19e-05
1.297e-05
1.417e-05
1.552e-05
1.702e-05
1.87e-05
2.056e-05
2.263e-05
2.492e-05
2.745e-05
3.022e-05
3.324e-05
3.653e-05
4.005e-05
4.381e-05
4.774e-05
5.181e-05
5.594e-05
6.004e-05
3.393e-06
5.285e-06
5.64e-06
5.838e-06
6.072e-06
6.368e-06
6.733e-06
7.172e-06
7.691e-06
8.294e-06
8.991e-06
9.79e-06
1.07e-05
1.174e-05
1.291e-05
1.424e-05
1.575e-05
1.744e-05
1.936e-05
2.152e-05
2.394e-05
2.667e-05
2.972e-05
3.313e-05
3.692e-05
4.11e-05
4.568e-05
5.063e-05
5.593e-05
6.148e-05
6.719e-05
7.293e-05
3.392e-06
5.283e-06
5.638e-06
5.835e-06
6.068e-06
6.364e-06
6.728e-06
7.166e-06
7.682e-06
8.284e-06
8.978e-06
9.773e-06
1.068e-05
1.171e-05
1.288e-05
1.42e-05
1.569e-05
1.738e-05
1.927e-05
2.141e-05
2.381e-05
2.651e-05
2.953e-05
3.289e-05
3.663e-05
4.075e-05
4.525e-05
5.012e-05
5.531e-05
6.076e-05
6.636e-05
7.198e-05
3.39e-06
5.28e-06
5.634e-06
5.83e-06
6.062e-06
6.356e-06
6.718e-06
7.153e-06
7.666e-06
8.263e-06
8.952e-06
9.74e-06
1.064e-05
1.166e-05
1.281e-05
1.412e-05
1.559e-05
1.725e-05
1.911e-05
2.121e-05
2.357e-05
2.62e-05
2.915e-05
3.243e-05
3.606e-05
4.006e-05
4.442e-05
4.912e-05
5.413e-05
5.938e-05
6.476e-05
7.015e-05
3.387e-06
5.275e-06
5.628e-06
5.823e-06
6.053e-06
6.345e-06
6.704e-06
7.135e-06
7.643e-06
8.233e-06
8.914e-06
9.692e-06
1.058e-05
1.158e-05
1.272e-05
1.4e-05
1.544e-05
1.706e-05
1.888e-05
2.092e-05
2.321e-05
2.576e-05
2.86e-05
3.176e-05
3.525e-05
3.907e-05
4.323e-05
4.77e-05
5.245e-05
5.741e-05
6.249e-05
6.757e-05
3.055e-06
4.763e-06
5.095e-06
5.294e-06
5.533e-06
5.837e-06
6.213e-06
6.666e-06
7.201e-06
7.827e-06
8.552e-06
9.386e-06
1.034e-05
1.143e-05
1.268e-05
1.41e-05
1.571e-05
1.755e-05
1.964e-05
2.201e-05
2.471e-05
2.778e-05
3.126e-05
3.518e-05
3.961e-05
4.456e-05
5.006e-05
5.61e-05
6.264e-05
6.96e-05
7.685e-05
8.418e-05
3.054e-06
4.761e-06
5.093e-06
5.291e-06
5.53e-06
5.833e-06
6.208e-06
6.659e-06
7.193e-06
7.816e-06
8.537e-06
9.368e-06
1.032e-05
1.14e-05
1.264e-05
1.405e-05
1.565e-05
1.747e-05
1.954e-05
2.189e-05
2.456e-05
2.759e-05
3.102e-05
3.489e-05
3.925e-05
4.412e-05
4.952e-05
5.544e-05
6.185e-05
6.866e-05
7.574e-05
8.29e-05
3.052e-06
4.758e-06
5.089e-06
5.286e-06
5.524e-06
5.825e-06
6.198e-06
6.646e-06
7.176e-06
7.794e-06
8.509e-06
9.332e-06
1.027e-05
1.135e-05
1.257e-05
1.396e-05
1.553e-05
1.733e-05
1.936e-05
2.166e-05
2.427e-05
2.723e-05
3.057e-05
3.433e-05
3.856e-05
4.327e-05
4.848e-05
5.418e-05
6.033e-05
6.686e-05
7.363e-05
8.047e-05
3.049e-06
4.753e-06
5.083e-06
5.279e-06
5.514e-06
5.814e-06
6.183e-06
6.626e-06
7.151e-06
7.762e-06
8.469e-06
9.28e-06
1.021e-05
1.126e-05
1.246e-05
1.382e-05
1.537e-05
1.711e-05
1.909e-05
2.133e-05
2.385e-05
2.671e-05
2.992e-05
3.353e-05
3.756e-05
4.205e-05
4.699e-05
5.238e-05
5.817e-05
6.43e-05
7.064e-05
7.703e-05
2.719e-06
4.245e-06
4.554e-06
4.754e-06
4.998e-06
5.309e-06
5.695e-06
6.161e-06
6.713e-06
7.36e-06
8.112e-06
8.981e-06
9.982e-06
1.113e-05
1.245e-05
1.396e-05
1.569e-05
1.767e-05
1.995e-05
2.257e-05
2.558e-05
2.903e-05
3.3e-05
3.755e-05
4.275e-05
4.866e-05
5.533e-05
6.278e-05
7.098e-05
7.985e-05
8.919e-05
9.875e-05
2.718e-06
4.243e-06
4.552e-06
4.751e-06
4.995e-06
5.305e-06
5.69e-06
6.154e-06
6.704e-06
7.348e-06
8.097e-06
8.961e-06
9.956e-06
1.11e-05
1.241e-05
1.39e-05
1.562e-05
1.759e-05
1.984e-05
2.243e-05
2.54e-05
2.881e-05
3.272e-05
3.72e-05
4.231e-05
4.811e-05
5.464e-05
6.193e-05
6.995e-05
7.86e-05
8.771e-05
9.703e-05
2.716e-06
4.24e-06
4.548e-06
4.746e-06
4.988e-06
5.297e-06
5.679e-06
6.14e-06
6.686e-06
7.325e-06
8.067e-06
8.923e-06
9.907e-06
1.103e-05
1.233e-05
1.38e-05
1.549e-05
1.742e-05
1.963e-05
2.217e-05
2.507e-05
2.839e-05
3.219e-05
3.652e-05
4.146e-05
4.705e-05
5.333e-05
6.032e-05
6.798e-05
7.622e-05
8.489e-05
9.373e-05
2.713e-06
4.235e-06
4.543e-06
4.739e-06
4.979e-06
5.285e-06
5.664e-06
6.12e-06
6.66e-06
7.291e-06
8.023e-06
8.867e-06
9.835e-06
1.094e-05
1.221e-05
1.365e-05
1.53e-05
1.718e-05
1.933e-05
2.178e-05
2.458e-05
2.777e-05
3.141e-05
3.556e-05
4.025e-05
4.554e-05
5.146e-05
5.802e-05
6.518e-05
7.286e-05
8.091e-05
8.909e-05
2.389e-06
3.735e-06
4.022e-06
4.222e-06
4.471e-06
4.789e-06
5.184e-06
5.662e-06
6.23e-06
6.897e-06
7.676e-06
8.58e-06
9.624e-06
1.083e-05
1.222e-05
1.383e-05
1.568e-05
1.782e-05
2.031e-05
2.319e-05
2.654e-05
3.044e-05
3.498e-05
4.026e-05
4.64e-05
5.351e-05
6.168e-05
7.098e-05
8.142e-05
9.29e-05
0.0001052
0.000118
2.388e-06
3.734e-06
4.021e-06
4.22e-06
4.468e-06
4.785e-06
5.179e-06
5.654e-06
6.22e-06
6.885e-06
7.66e-06
8.558e-06
9.597e-06
1.079e-05
1.218e-05
1.377e-05
1.56e-05
1.773e-05
2.018e-05
2.303e-05
2.634e-05
3.018e-05
3.465e-05
3.984e-05
4.586e-05
5.282e-05
6.081e-05
6.989e-05
8.006e-05
9.124e-05
0.0001032
0.0001156
2.386e-06
3.731e-06
4.017e-06
4.215e-06
4.462e-06
4.777e-06
5.168e-06
5.64e-06
6.202e-06
6.86e-06
7.628e-06
8.517e-06
9.543e-06
1.073e-05
1.209e-05
1.365e-05
1.546e-05
1.754e-05
1.995e-05
2.273e-05
2.595e-05
2.968e-05
3.401e-05
3.903e-05
4.483e-05
5.151e-05
5.915e-05
6.78e-05
7.747e-05
8.806e-05
9.936e-05
0.000111
2.383e-06
3.727e-06
4.012e-06
4.208e-06
4.453e-06
4.765e-06
5.152e-06
5.619e-06
6.174e-06
6.825e-06
7.581e-06
8.457e-06
9.466e-06
1.063e-05
1.196e-05
1.349e-05
1.525e-05
1.727e-05
1.96e-05
2.229e-05
2.538e-05
2.896e-05
3.31e-05
3.786e-05
4.335e-05
4.963e-05
5.679e-05
6.485e-05
7.382e-05
8.359e-05
9.398e-05
0.0001047
2.067e-06
3.239e-06
3.505e-06
3.704e-06
3.957e-06
4.282e-06
4.685e-06
5.174e-06
5.757e-06
6.444e-06
7.248e-06
8.185e-06
9.273e-06
1.054e-05
1.2e-05
1.37e-05
1.569e-05
1.8e-05
2.07e-05
2.387e-05
2.76e-05
3.201e-05
3.721e-05
4.337e-05
5.065e-05
5.924e-05
6.934e-05
8.109e-05
9.458e-05
0.0001098
0.0001263
0.0001438
2.066e-06
3.238e-06
3.503e-06
3.702e-06
3.954e-06
4.278e-06
4.679e-06
5.166e-06
5.747e-06
6.43e-06
7.231e-06
8.162e-06
9.243e-06
1.05e-05
1.195e-05
1.364e-05
1.56e-05
1.789e-05
2.056e-05
2.369e-05
2.737e-05
3.17e-05
3.681e-05
4.285e-05
4.998e-05
5.838e-05
6.823e-05
7.967e-05
9.277e-05
0.0001075
0.0001236
0.0001404
2.065e-06
3.235e-06
3.499e-06
3.697e-06
3.948e-06
4.269e-06
4.668e-06
5.152e-06
5.727e-06
6.405e-06
7.197e-06
8.118e-06
9.186e-06
1.042e-05
1.185e-05
1.351e-05
1.544e-05
1.768e-05
2.029e-05
2.334e-05
2.692e-05
3.112e-05
3.606e-05
4.187e-05
4.871e-05
5.674e-05
6.611e-05
7.696e-05
8.933e-05
0.0001032
0.0001183
0.000134
2.062e-06
3.232e-06
3.494e-06
3.691e-06
3.939e-06
4.258e-06
4.652e-06
5.13e-06
5.699e-06
6.367e-06
7.148e-06
8.054e-06
9.102e-06
1.031e-05
1.171e-05
1.333e-05
1.521e-05
1.738e-05
1.99e-05
2.284e-05
2.627e-05
3.028e-05
3.497e-05
4.047e-05
4.691e-05
5.442e-05
6.313e-05
7.315e-05
8.452e-05
9.716e-05
0.0001109
0.0001251
1.758e-06
2.762e-06
3.006e-06
3.206e-06
3.462e-06
3.792e-06
4.203e-06
4.702e-06
5.298e-06
6.004e-06
6.832e-06
7.801e-06
8.931e-06
1.025e-05
1.179e-05
1.359e-05
1.57e-05
1.819e-05
2.113e-05
2.461e-05
2.876e-05
3.373e-05
3.969e-05
4.687e-05
5.554e-05
6.6e-05
7.857e-05
9.359e-05
0.0001113
0.0001317
0.0001547
0.0001792
1.757e-06
2.761e-06
3.004e-06
3.203e-06
3.459e-06
3.788e-06
4.197e-06
4.694e-06
5.288e-06
5.99e-06
6.814e-06
7.777e-06
8.9e-06
1.021e-05
1.174e-05
1.352e-05
1.561e-05
1.807e-05
2.097e-05
2.441e-05
2.849e-05
3.337e-05
3.922e-05
4.626e-05
5.473e-05
6.492e-05
7.715e-05
9.173e-05
0.0001089
0.0001286
0.0001508
0.0001744
1.756e-06
2.759e-06
3.001e-06
3.199e-06
3.453e-06
3.78e-06
4.186e-06
4.679e-06
5.268e-06
5.963e-06
6.778e-06
7.73e-06
8.838e-06
1.013e-05
1.163e-05
1.338e-05
1.543e-05
1.784e-05
2.067e-05
2.401e-05
2.797e-05
3.269e-05
3.833e-05
4.508e-05
5.317e-05
6.287e-05
7.445e-05
8.818e-05
0.0001043
0.0001227
0.0001433
0.0001653
1.754e-06
2.755e-06
2.997e-06
3.193e-06
3.444e-06
3.768e-06
4.17e-06
4.657e-06
5.238e-06
5.924e-06
6.726e-06
7.662e-06
8.749e-06
1.001e-05
1.148e-05
1.319e-05
1.518e-05
1.75e-05
2.023e-05
2.344e-05
2.723e-05
3.172e-05
3.705e-05
4.34e-05
5.097e-05
5.998e-05
7.066e-05
8.323e-05
9.784e-05
0.0001145
0.0001329
0.0001525
1.464e-06
2.309e-06
2.532e-06
2.731e-06
2.991e-06
3.325e-06
3.743e-06
4.251e-06
4.86e-06
5.582e-06
6.433e-06
7.432e-06
8.604e-06
9.977e-06
1.159e-05
1.349e-05
1.574e-05
1.84e-05
2.158e-05
2.54e-05
3e-05
3.559e-05
4.242e-05
5.08e-05
6.113e-05
7.389e-05
8.965e-05
0.000109
0.0001326
0.0001608
0.0001933
0.0002291
1.463e-06
2.308e-06
2.53e-06
2.729e-06
2.988e-06
3.321e-06
3.737e-06
4.243e-06
4.849e-06
5.568e-06
6.414e-06
7.407e-06
8.57e-06
9.933e-06
1.153e-05
1.341e-05
1.563e-05
1.827e-05
2.141e-05
2.516e-05
2.969e-05
3.518e-05
4.187e-05
5.006e-05
6.013e-05
7.254e-05
8.784e-05
0.0001066
0.0001294
0.0001565
0.0001878
0.0002221
1.462e-06
2.306e-06
2.528e-06
2.725e-06
2.982e-06
3.313e-06
3.726e-06
4.228e-06
4.828e-06
5.54e-06
6.377e-06
7.357e-06
8.505e-06
9.847e-06
1.142e-05
1.326e-05
1.544e-05
1.801e-05
2.107e-05
2.472e-05
2.91e-05
3.439e-05
4.081e-05
4.864e-05
5.823e-05
6.998e-05
8.438e-05
0.0001019
0.0001231
0.0001482
0.0001771
0.0002087
1.46e-06
2.303e-06
2.523e-06
2.719e-06
2.974e-06
3.301e-06
3.71e-06
4.205e-06
4.798e-06
5.499e-06
6.322e-06
7.285e-06
8.41e-06
9.722e-06
1.125e-05
1.305e-05
1.516e-05
1.764e-05
2.058e-05
2.407e-05
2.825e-05
3.326e-05
3.931e-05
4.664e-05
5.555e-05
6.638e-05
7.954e-05
9.545e-05
0.0001145
0.0001368
0.0001623
0.0001899
1.189e-06
1.884e-06
2.088e-06
2.286e-06
2.548e-06
2.887e-06
3.311e-06
3.827e-06
4.447e-06
5.185e-06
6.056e-06
7.084e-06
8.294e-06
9.72e-06
1.14e-05
1.34e-05
1.578e-05
1.862e-05
2.205e-05
2.622e-05
3.13e-05
3.757e-05
4.536e-05
5.511e-05
6.74e-05
8.299e-05
0.0001028
0.0001281
0.0001599
0.0001995
0.0002471
0.0003012
1.188e-06
1.883e-06
2.087e-06
2.284e-06
2.546e-06
2.883e-06
3.305e-06
3.819e-06
4.436e-06
5.17e-06
6.036e-06
7.057e-06
8.258e-06
9.672e-06
1.134e-05
1.332e-05
1.567e-05
1.848e-05
2.186e-05
2.595e-05
3.095e-05
3.71e-05
4.471e-05
5.423e-05
6.619e-05
8.132e-05
0.0001005
0.0001249
0.0001555
0.0001935
0.0002391
0.0002909
1.187e-06
1.881e-06
2.084e-06
2.281e-06
2.54e-06
2.875e-06
3.294e-06
3.803e-06
4.415e-06
5.141e-06
5.997e-06
7.005e-06
8.189e-06
9.581e-06
1.122e-05
1.316e-05
1.545e-05
1.82e-05
2.148e-05
2.545e-05
3.028e-05
3.619e-05
4.348e-05
5.254e-05
6.387e-05
7.812e-05
9.608e-05
0.0001187
0.000147
0.0001818
0.0002235
0.0002706
1.186e-06
1.879e-06
2.08e-06
2.275e-06
2.532e-06
2.864e-06
3.277e-06
3.781e-06
4.384e-06
5.098e-06
5.941e-06
6.929e-06
8.088e-06
9.448e-06
1.104e-05
1.292e-05
1.515e-05
1.779e-05
2.094e-05
2.473e-05
2.932e-05
3.49e-05
4.173e-05
5.017e-05
6.063e-05
7.366e-05
8.993e-05
0.0001102
0.0001353
0.0001658
0.0002018
0.0002423
9.353e-07
1.493e-06
1.679e-06
1.877e-06
2.141e-06
2.483e-06
2.912e-06
3.435e-06
4.065e-06
4.816e-06
5.707e-06
6.76e-06
8.006e-06
9.481e-06
1.123e-05
1.332e-05
1.583e-05
1.885e-05
2.253e-05
2.705e-05
3.263e-05
3.962e-05
4.845e-05
5.973e-05
7.429e-05
9.329e-05
0.0001183
0.0001513
0.0001948
0.0002514
0.000323
0.0004082
9.349e-07
1.492e-06
1.678e-06
1.875e-06
2.138e-06
2.479e-06
2.906e-06
3.427e-06
4.054e-06
4.801e-06
5.686e-06
6.732e-06
7.968e-06
9.431e-06
1.117e-05
1.323e-05
1.571e-05
1.869e-05
2.232e-05
2.676e-05
3.224e-05
3.908e-05
4.77e-05
5.868e-05
7.282e-05
9.121e-05
0.0001153
0.000147
0.0001887
0.0002429
0.0003113
0.0003929
9.342e-07
1.491e-06
1.676e-06
1.872e-06
2.133e-06
2.471e-06
2.895e-06
3.411e-06
4.032e-06
4.771e-06
5.645e-06
6.678e-06
7.896e-06
9.334e-06
1.104e-05
1.306e-05
1.548e-05
1.839e-05
2.19e-05
2.62e-05
3.148e-05
3.804e-05
4.627e-05
5.67e-05
7.003e-05
8.725e-05
0.0001097
0.0001389
0.0001771
0.0002263
0.0002882
0.0003617
9.331e-07
1.489e-06
1.672e-06
1.867e-06
2.125e-06
2.46e-06
2.878e-06
3.388e-06
4e-06
4.727e-06
5.587e-06
6.599e-06
7.79e-06
9.193e-06
1.085e-05
1.281e-05
1.515e-05
1.794e-05
2.131e-05
2.54e-05
3.04e-05
3.657e-05
4.425e-05
5.39e-05
6.613e-05
8.176e-05
0.0001018
0.0001277
0.0001611
0.0002034
0.0002559
0.0003175
7.07e-07
1.141e-06
1.311e-06
1.508e-06
1.773e-06
2.118e-06
2.551e-06
3.08e-06
3.719e-06
4.482e-06
5.389e-06
6.466e-06
7.744e-06
9.264e-06
1.108e-05
1.325e-05
1.588e-05
1.908e-05
2.3e-05
2.786e-05
3.395e-05
4.167e-05
5.158e-05
6.451e-05
8.16e-05
0.0001045
0.0001358
0.0001789
0.0002385
0.0003206
0.0004311
0.000571
7.068e-07
1.14e-06
1.31e-06
1.506e-06
1.771e-06
2.115e-06
2.545e-06
3.072e-06
3.707e-06
4.466e-06
5.368e-06
6.437e-06
7.705e-06
9.211e-06
1.101e-05
1.316e-05
1.575e-05
1.891e-05
2.277e-05
2.754e-05
3.351e-05
4.106e-05
5.073e-05
6.329e-05
7.985e-05
0.000102
0.0001321
0.0001733
0.0002304
0.0003087
0.0004142
0.000548
7.062e-07
1.139e-06
1.308e-06
1.503e-06
1.766e-06
2.107e-06
2.534e-06
3.056e-06
3.685e-06
4.435e-06
5.326e-06
6.38e-06
7.629e-06
9.109e-06
1.087e-05
1.298e-05
1.551e-05
1.857e-05
2.232e-05
2.693e-05
3.267e-05
3.989e-05
4.909e-05
6.098e-05
7.653e-05
9.717e-05
0.0001249
0.0001627
0.0002145
0.0002851
0.0003796
0.0004993
7.054e-07
1.138e-06
1.305e-06
1.498e-06
1.758e-06
2.096e-06
2.518e-06
3.033e-06
3.652e-06
4.391e-06
5.265e-06
6.298e-06
7.518e-06
8.961e-06
1.067e-05
1.271e-05
1.515e-05
1.81e-05
2.167e-05
2.605e-05
3.147e-05
3.824e-05
4.679e-05
5.773e-05
7.19e-05
9.047e-05
0.0001151
0.0001481
0.0001926
0.0002522
0.0003305
0.0004283
5.068e-07
8.318e-07
9.872e-07
1.183e-06
1.45e-06
1.798e-06
2.234e-06
2.768e-06
3.414e-06
4.187e-06
5.109e-06
6.206e-06
7.512e-06
9.072e-06
1.094e-05
1.32e-05
1.594e-05
1.929e-05
2.344e-05
2.862e-05
3.519e-05
4.362e-05
5.462e-05
6.921e-05
8.896e-05
0.0001163
0.0001548
0.0002104
0.0002917
0.0004112
0.0005842
0.0008216
5.066e-07
8.315e-07
9.863e-07
1.182e-06
1.448e-06
1.794e-06
2.228e-06
2.76e-06
3.402e-06
4.171e-06
5.087e-06
6.176e-06
7.471e-06
9.017e-06
1.087e-05
1.31e-05
1.58e-05
1.911e-05
2.319e-05
2.828e-05
3.471e-05
4.294e-05
5.365e-05
6.782e-05
8.692e-05
0.0001132
0.0001502
0.0002033
0.0002809
0.0003947
0.0005599
0.0007878
5.063e-07
8.307e-07
9.847e-07
1.179e-06
1.443e-06
1.786e-06
2.217e-06
2.744e-06
3.379e-06
4.139e-06
5.044e-06
6.117e-06
7.393e-06
8.91e-06
1.072e-05
1.29e-05
1.554e-05
1.875e-05
2.27e-05
2.761e-05
3.378e-05
4.165e-05
5.181e-05
6.517e-05
8.304e-05
0.0001074
0.0001414
0.0001897
0.0002595
0.0003613
0.0005083
0.0007113
5.057e-07
8.294e-07
9.823e-07
1.175e-06
1.436e-06
1.775e-06
2.2e-06
2.72e-06
3.346e-06
4.094e-06
4.981e-06
6.032e-06
7.278e-06
8.756e-06
1.052e-05
1.262e-05
1.516e-05
1.824e-05
2.201e-05
2.666e-05
3.247e-05
3.982e-05
4.923e-05
6.147e-05
7.764e-05
9.939e-05
0.0001292
0.0001708
0.0002298
0.0003141
0.0004333
0.0005947
3.372e-07
5.7e-07
7.132e-07
9.084e-07
1.176e-06
1.526e-06
1.964e-06
2.502e-06
3.154e-06
3.935e-06
4.869e-06
5.983e-06
7.314e-06
8.908e-06
1.083e-05
1.315e-05
1.598e-05
1.948e-05
2.382e-05
2.93e-05
3.629e-05
4.537e-05
5.735e-05
7.351e-05
9.581e-05
0.0001274
0.0001737
0.0002436
0.000352
0.0005232
0.0007939
0.001206
3.371e-07
5.698e-07
7.124e-07
9.07e-07
1.174e-06
1.522e-06
1.958e-06
2.494e-06
3.142e-06
3.919e-06
4.846e-06
5.952e-06
7.272e-06
8.85e-06
1.075e-05
1.304e-05
1.584e-05
1.928e-05
2.356e-05
2.893e-05
3.577e-05
4.463e-05
5.629e-05
7.195e-05
9.348e-05
0.0001239
0.0001682
0.0002348
0.000338
0.000501
0.00076
0.001157
3.369e-07
5.692e-07
7.111e-07
9.043e-07
1.169e-06
1.514e-06
1.947e-06
2.478e-06
3.119e-06
3.887e-06
4.803e-06
5.892e-06
7.19e-06
8.74e-06
1.06e-05
1.284e-05
1.557e-05
1.891e-05
2.304e-05
2.822e-05
3.478e-05
4.322e-05
5.426e-05
6.899e-05
8.906e-05
0.0001171
0.0001576
0.0002177
0.00031
0.0004548
0.0006842
0.001038
3.366e-07
5.684e-07
7.09e-07
9.003e-07
1.163e-06
1.504e-06
1.931e-06
2.454e-06
3.086e-06
3.84e-06
4.739e-06
5.805e-06
7.072e-06
8.58e-06
1.038e-05
1.255e-05
1.517e-05
1.837e-05
2.23e-05
2.72e-05
3.336e-05
4.123e-05
5.142e-05
6.486e-05
8.293e-05
0.0001078
0.000143
0.0001942
0.0002709
0.0003885
0.0005704
0.0008445
2.006e-07
3.59e-07
4.923e-07
6.867e-07
9.551e-07
1.305e-06
1.746e-06
2.287e-06
2.942e-06
3.73e-06
4.672e-06
5.799e-06
7.148e-06
8.768e-06
1.072e-05
1.31e-05
1.601e-05
1.962e-05
2.412e-05
2.983e-05
3.718e-05
4.677e-05
5.954e-05
7.695e-05
0.0001013
0.0001365
0.0001894
0.0002728
0.0004099
0.0006446
0.001058
0.001766
2.006e-07
3.588e-07
4.916e-07
6.853e-07
9.528e-07
1.302e-06
1.74e-06
2.278e-06
2.93e-06
3.713e-06
4.649e-06
5.767e-06
7.105e-06
8.709e-06
1.064e-05
1.299e-05
1.586e-05
1.941e-05
2.384e-05
2.944e-05
3.662e-05
4.598e-05
5.84e-05
7.526e-05
9.874e-05
0.0001325
0.0001831
0.0002625
0.0003928
0.0006161
0.001012
0.001699
2.005e-07
3.585e-07
4.904e-07
6.828e-07
9.483e-07
1.294e-06
1.729e-06
2.262e-06
2.907e-06
3.68e-06
4.604e-06
5.706e-06
7.021e-06
8.596e-06
1.049e-05
1.278e-05
1.558e-05
1.902e-05
2.33e-05
2.869e-05
3.557e-05
4.448e-05
5.622e-05
7.205e-05
9.389e-05
0.000125
0.000171
0.0002423
0.000358
0.000555
0.0009041
0.001518
2.005e-07
3.579e-07
4.887e-07
6.791e-07
9.417e-07
1.284e-06
1.713e-06
2.238e-06
2.873e-06
3.633e-06
4.539e-06
5.617e-06
6.9e-06
8.431e-06
1.027e-05
1.248e-05
1.517e-05
1.846e-05
2.253e-05
2.762e-05
3.407e-05
4.236e-05
5.318e-05
6.757e-05
8.718e-05
0.0001146
0.0001543
0.0002144
0.0003093
0.0004665
0.0007378
0.001204
9.876e-08
2.012e-07
3.265e-07
5.192e-07
7.865e-07
1.136e-06
1.575e-06
2.114e-06
2.769e-06
3.557e-06
4.5e-06
5.63e-06
6.985e-06
8.616e-06
1.059e-05
1.299e-05
1.594e-05
1.961e-05
2.421e-05
3.005e-05
3.759e-05
4.748e-05
6.069e-05
7.873e-05
0.0001041
0.0001408
0.0001966
0.0002867
0.0004419
0.0007305
0.001306
0.002423
9.879e-08
2.011e-07
3.259e-07
5.179e-07
7.842e-07
1.132e-06
1.569e-06
2.106e-06
2.757e-06
3.54e-06
4.477e-06
5.598e-06
6.941e-06
8.556e-06
1.051e-05
1.288e-05
1.579e-05
1.94e-05
2.392e-05
2.965e-05
3.702e-05
4.666e-05
5.95e-05
7.698e-05
0.0001014
0.0001367
0.00019
0.0002756
0.0004227
0.0006966
0.001247
0.002335
9.887e-08
2.009e-07
3.249e-07
5.156e-07
7.799e-07
1.125e-06
1.558e-06
2.09e-06
2.734e-06
3.507e-06
4.432e-06
5.536e-06
6.857e-06
8.441e-06
1.035e-05
1.267e-05
1.55e-05
1.9e-05
2.336e-05
2.887e-05
3.593e-05
4.51e-05
5.724e-05
7.364e-05
9.634e-05
0.0001288
0.0001772
0.0002539
0.000384
0.0006237
0.001106
0.002083
9.897e-08
2.006e-07
3.234e-07
5.121e-07
7.736e-07
1.114e-06
1.542e-06
2.066e-06
2.7e-06
3.46e-06
4.367e-06
5.446e-06
6.734e-06
8.274e-06
1.012e-05
1.236e-05
1.508e-05
1.842e-05
2.257e-05
2.777e-05
3.438e-05
4.291e-05
5.408e-05
6.899e-05
8.935e-05
0.000118
0.0001597
0.0002241
0.0003299
0.0005186
0.0008876
0.001623
3.398e-08
9.876e-08
2.142e-07
3.976e-07
6.527e-07
9.859e-07
1.405e-06
1.921e-06
2.547e-06
3.3e-06
4.203e-06
5.285e-06
6.585e-06
8.149e-06
1.004e-05
1.236e-05
1.52e-05
1.874e-05
2.318e-05
2.883e-05
3.613e-05
4.569e-05
5.844e-05
7.574e-05
9.974e-05
0.0001339
0.0001841
0.0002626
0.0003946
0.000642
0.001232
0.002814
3.412e-08
9.884e-08
2.138e-07
3.966e-07
6.507e-07
9.825e-07
1.4e-06
1.913e-06
2.535e-06
3.284e-06
4.181e-06
5.255e-06
6.542e-06
8.092e-06
9.966e-06
1.225e-05
1.505e-05
1.853e-05
2.29e-05
2.844e-05
3.557e-05
4.49e-05
5.729e-05
7.406e-05
9.722e-05
0.00013
0.0001782
0.0002529
0.0003776
0.0006108
0.001172
0.002711
3.428e-08
9.879e-08
2.13e-07
3.944e-07
6.467e-07
9.758e-07
1.389e-06
1.898e-06
2.513e-06
3.253e-06
4.138e-06
5.195e-06
6.461e-06
7.981e-06
9.815e-06
1.204e-05
1.477e-05
1.815e-05
2.236e-05
2.769e-05
3.452e-05
4.339e-05
5.511e-05
7.086e-05
9.245e-05
0.0001227
0.0001667
0.000234
0.0003446
0.0005481
0.001031
0.002388
3.447e-08
9.863e-08
2.117e-07
3.913e-07
6.408e-07
9.66e-07
1.374e-06
1.875e-06
2.481e-06
3.207e-06
4.075e-06
5.109e-06
6.343e-06
7.82e-06
9.597e-06
1.175e-05
1.437e-05
1.759e-05
2.159e-05
2.662e-05
3.302e-05
4.127e-05
5.206e-05
6.641e-05
8.583e-05
0.0001127
0.000151
0.0002082
0.0002998
0.0004623
0.0008241
0.001785
5.141e-09
3.722e-08
1.104e-07
2.285e-07
3.932e-07
6.085e-07
8.795e-07
1.213e-06
1.618e-06
2.105e-06
2.689e-06
3.389e-06
4.23e-06
5.242e-06
6.469e-06
7.966e-06
9.807e-06
1.209e-05
1.497e-05
1.862e-05
2.332e-05
2.945e-05
3.755e-05
4.838e-05
6.29e-05
8.23e-05
0.0001076
0.0001394
0.0001756
0.0002005
0.0003805
0.003006
5.229e-09
3.726e-08
1.101e-07
2.278e-07
3.919e-07
6.063e-07
8.761e-07
1.208e-06
1.61e-06
2.094e-06
2.675e-06
3.369e-06
4.202e-06
5.205e-06
6.418e-06
7.896e-06
9.712e-06
1.196e-05
1.479e-05
1.836e-05
2.296e-05
2.895e-05
3.683e-05
4.734e-05
6.141e-05
8.018e-05
0.0001047
0.0001356
0.0001705
0.0001946
0.0003633
0.00289
5.35e-09
3.724e-08
1.096e-07
2.265e-07
3.893e-07
6.02e-07
8.694e-07
1.198e-06
1.596e-06
2.074e-06
2.647e-06
3.331e-06
4.15e-06
5.133e-06
6.321e-06
7.763e-06
9.529e-06
1.171e-05
1.444e-05
1.788e-05
2.228e-05
2.799e-05
3.546e-05
4.536e-05
5.856e-05
7.61e-05
9.898e-05
0.0001279
0.0001611
0.0001854
0.0003206
0.002467
5.506e-09
3.718e-08
1.088e-07
2.245e-07
3.856e-07
5.957e-07
8.596e-07
1.183e-06
1.575e-06
2.045e-06
2.606e-06
3.275e-06
4.073e-06
5.029e-06
6.179e-06
7.57e-06
9.266e-06
1.135e-05
1.394e-05
1.719e-05
2.132e-05
2.663e-05
3.352e-05
4.259e-05
5.458e-05
7.043e-05
9.114e-05
0.0001176
0.0001492
0.0001789
0.0002734
0.001537
1.123e-05
1.195e-05
1.275e-05
1.363e-05
1.461e-05
1.568e-05
1.685e-05
1.814e-05
1.953e-05
2.104e-05
2.267e-05
2.442e-05
2.629e-05
2.826e-05
3.035e-05
3.252e-05
3.476e-05
3.704e-05
3.935e-05
4.163e-05
4.385e-05
1.055e-05
1.118e-05
1.188e-05
1.267e-05
1.354e-05
1.449e-05
1.554e-05
1.669e-05
1.793e-05
1.929e-05
2.075e-05
2.233e-05
2.401e-05
2.58e-05
2.77e-05
2.969e-05
3.176e-05
3.389e-05
3.606e-05
3.823e-05
4.039e-05
4.248e-05
9.95e-06
1.05e-05
1.112e-05
1.181e-05
1.258e-05
1.343e-05
1.436e-05
1.538e-05
1.65e-05
1.771e-05
1.901e-05
2.043e-05
2.194e-05
2.355e-05
2.526e-05
2.707e-05
2.896e-05
3.091e-05
3.292e-05
3.496e-05
3.701e-05
3.902e-05
4.097e-05
9.431e-06
9.908e-06
1.045e-05
1.106e-05
1.173e-05
1.248e-05
1.331e-05
1.422e-05
1.521e-05
1.629e-05
1.746e-05
1.872e-05
2.007e-05
2.152e-05
2.306e-05
2.469e-05
2.64e-05
2.818e-05
3.002e-05
3.19e-05
3.381e-05
3.571e-05
3.758e-05
3.938e-05
9.394e-06
9.863e-06
1.039e-05
1.099e-05
1.165e-05
1.239e-05
1.319e-05
1.407e-05
1.503e-05
1.608e-05
1.72e-05
1.841e-05
1.971e-05
2.109e-05
2.255e-05
2.409e-05
2.571e-05
2.738e-05
2.91e-05
3.086e-05
3.262e-05
3.438e-05
3.611e-05
3.777e-05
8.955e-06
9.358e-06
9.818e-06
1.034e-05
1.092e-05
1.157e-05
1.228e-05
1.307e-05
1.393e-05
1.486e-05
1.586e-05
1.694e-05
1.811e-05
1.934e-05
2.066e-05
2.204e-05
2.35e-05
2.501e-05
2.658e-05
2.819e-05
2.982e-05
3.145e-05
3.307e-05
3.466e-05
3.618e-05
8.584e-06
8.925e-06
9.321e-06
9.774e-06
1.028e-05
1.085e-05
1.149e-05
1.218e-05
1.295e-05
1.378e-05
1.468e-05
1.565e-05
1.669e-05
1.78e-05
1.899e-05
2.024e-05
2.155e-05
2.292e-05
2.434e-05
2.581e-05
2.73e-05
2.881e-05
3.032e-05
3.181e-05
3.327e-05
3.466e-05
8.276e-06
8.56e-06
8.896e-06
9.286e-06
9.731e-06
1.023e-05
1.079e-05
1.141e-05
1.209e-05
1.283e-05
1.364e-05
1.451e-05
1.545e-05
1.645e-05
1.752e-05
1.865e-05
1.983e-05
2.108e-05
2.237e-05
2.371e-05
2.508e-05
2.647e-05
2.787e-05
2.927e-05
3.064e-05
3.197e-05
3.324e-05
8.027e-06
8.258e-06
8.538e-06
8.869e-06
9.253e-06
9.69e-06
1.018e-05
1.073e-05
1.134e-05
1.2e-05
1.272e-05
1.351e-05
1.435e-05
1.526e-05
1.623e-05
1.725e-05
1.833e-05
1.947e-05
2.065e-05
2.187e-05
2.313e-05
2.442e-05
2.572e-05
2.702e-05
2.831e-05
2.957e-05
3.079e-05
3.195e-05
7.828e-06
8.012e-06
8.24e-06
8.516e-06
8.843e-06
9.221e-06
9.652e-06
1.014e-05
1.067e-05
1.127e-05
1.192e-05
1.263e-05
1.339e-05
1.421e-05
1.509e-05
1.602e-05
1.701e-05
1.805e-05
1.913e-05
2.026e-05
2.142e-05
2.261e-05
2.382e-05
2.504e-05
2.626e-05
2.746e-05
2.863e-05
2.975e-05
3.082e-05
7.636e-06
7.808e-06
7.989e-06
8.215e-06
8.488e-06
8.811e-06
9.184e-06
9.608e-06
1.008e-05
1.061e-05
1.12e-05
1.183e-05
1.253e-05
1.327e-05
1.407e-05
1.493e-05
1.583e-05
1.679e-05
1.779e-05
1.883e-05
1.991e-05
2.102e-05
2.215e-05
2.33e-05
2.445e-05
2.559e-05
2.671e-05
2.78e-05
2.885e-05
2.984e-05
7.157e-06
7.575e-06
7.744e-06
7.923e-06
8.145e-06
8.414e-06
8.732e-06
9.099e-06
9.515e-06
9.983e-06
1.05e-05
1.107e-05
1.17e-05
1.237e-05
1.31e-05
1.388e-05
1.471e-05
1.559e-05
1.651e-05
1.747e-05
1.848e-05
1.951e-05
2.057e-05
2.165e-05
2.274e-05
2.383e-05
2.491e-05
2.596e-05
2.699e-05
2.797e-05
2.889e-05
4.489e-06
6.909e-06
7.301e-06
7.461e-06
7.633e-06
7.845e-06
8.103e-06
8.407e-06
8.758e-06
9.156e-06
9.603e-06
1.01e-05
1.064e-05
1.124e-05
1.188e-05
1.257e-05
1.331e-05
1.41e-05
1.493e-05
1.58e-05
1.671e-05
1.766e-05
1.863e-05
1.962e-05
2.063e-05
2.165e-05
2.266e-05
2.366e-05
2.464e-05
2.559e-05
2.649e-05
2.733e-05
3.901e-06
5.844e-06
6.143e-06
6.271e-06
6.414e-06
6.591e-06
6.807e-06
7.061e-06
7.355e-06
7.688e-06
8.061e-06
8.475e-06
8.929e-06
9.424e-06
9.96e-06
1.054e-05
1.115e-05
1.181e-05
1.25e-05
1.322e-05
1.397e-05
1.476e-05
1.556e-05
1.638e-05
1.721e-05
1.805e-05
1.888e-05
1.97e-05
2.05e-05
2.128e-05
2.201e-05
2.27e-05
2.015e-06
2.758e-06
2.857e-06
2.91e-06
2.976e-06
3.058e-06
3.157e-06
3.275e-06
3.41e-06
3.564e-06
3.736e-06
3.927e-06
4.137e-06
4.365e-06
4.612e-06
4.878e-06
5.161e-06
5.462e-06
5.78e-06
6.113e-06
6.46e-06
6.819e-06
7.188e-06
7.565e-06
7.947e-06
8.33e-06
8.712e-06
9.088e-06
9.455e-06
9.808e-06
1.014e-05
1.046e-05
4.389e-06
6.82e-06
7.239e-06
7.428e-06
7.639e-06
7.903e-06
8.226e-06
8.611e-06
9.062e-06
9.582e-06
1.017e-05
1.085e-05
1.16e-05
1.244e-05
1.338e-05
1.442e-05
1.557e-05
1.683e-05
1.822e-05
1.974e-05
2.139e-05
2.319e-05
2.513e-05
2.722e-05
2.945e-05
3.182e-05
3.43e-05
3.689e-05
3.955e-05
4.225e-05
4.494e-05
4.757e-05
4.383e-06
6.811e-06
7.229e-06
7.417e-06
7.626e-06
7.887e-06
8.206e-06
8.587e-06
9.032e-06
9.545e-06
1.013e-05
1.079e-05
1.153e-05
1.236e-05
1.327e-05
1.429e-05
1.541e-05
1.664e-05
1.798e-05
1.945e-05
2.105e-05
2.278e-05