/*--------------------------------*- C++ -*----------------------------------*\
  =========                 |
  \\      /  F ield         | OpenFOAM: The Open Source CFD Toolbox
   \\    /   O peration     | Website:  https://openfoam.org
    \\  /    A nd           | Version:  6
     \\/     M anipulation  |
\*---------------------------------------------------------------------------*/
FoamFile
{
    version     2.0;
    format      ascii;
    class       volScalarField;
    location    "5";
    object      T;
}
// * * * * * * * * * * * * * * * * * * * * * * * * * * * * * * * * * * * * * //

dimensions      [0 0 0 1 0 0 0];

internalField   nonuniform List<scalar> 
16128
(
2.411
2.275
2.141
2.008
1.879
1.753
1.633
1.518
1.409
1.307
1.212
1.125
1.045
0.9722
0.9072
0.8497
0.7992
2.552
2.418
2.283
2.148
2.016
1.887
1.762
1.642
1.528
1.419
1.317
1.222
1.135
1.055
0.9823
0.9173
0.8596
0.8091
2.697
2.565
2.431
2.297
2.164
2.033
1.905
1.781
1.661
1.547
1.439
1.337
1.243
1.155
1.075
1.003
0.9375
0.8796
0.8288
2.842
2.714
2.583
2.451
2.319
2.187
2.057
1.931
1.807
1.689
1.576
1.468
1.367
1.273
1.186
1.106
1.033
0.9678
0.9097
0.8586
3.737
3.721
3.691
3.647
3.589
3.519
3.437
3.344
3.241
3.129
3.01
2.884
2.753
2.618
2.481
2.342
2.203
2.066
1.93
1.798
1.671
1.548
1.432
1.322
1.219
1.123
1.036
0.9559
0.8839
0.8197
0.7631
0.7138
3.738
3.722
3.692
3.648
3.591
3.521
3.439
3.347
3.244
3.133
3.014
2.889
2.759
2.624
2.487
2.349
2.211
2.074
1.939
1.807
1.68
1.558
1.442
1.332
1.229
1.134
1.046
0.9661
0.894
0.8297
0.773
0.7235
3.739
3.724
3.694
3.651
3.594
3.525
3.444
3.352
3.251
3.141
3.023
2.898
2.769
2.636
2.5
2.363
2.226
2.09
1.956
1.825
1.699
1.577
1.461
1.352
1.249
1.154
1.067
0.9866
0.9144
0.8498
0.7928
0.743
3.742
3.727
3.697
3.655
3.599
3.531
3.451
3.36
3.26
3.151
3.035
2.913
2.785
2.653
2.519
2.384
2.248
2.114
1.981
1.852
1.726
1.606
1.491
1.382
1.28
1.185
1.097
1.017
0.9449
0.8801
0.8226
0.7724
3.707
3.691
3.66
3.614
3.555
3.483
3.399
3.303
3.198
3.083
2.96
2.831
2.696
2.558
2.417
2.275
2.133
1.993
1.855
1.72
1.59
1.466
1.348
1.237
1.133
1.037
0.9496
0.8701
0.7988
0.7356
0.6802
0.6323
3.708
3.692
3.661
3.616
3.557
3.485
3.401
3.306
3.201
3.087
2.964
2.836
2.702
2.564
2.424
2.283
2.141
2.001
1.863
1.729
1.6
1.476
1.358
1.247
1.143
1.048
0.9599
0.8803
0.8089
0.7455
0.69
0.6418
3.71
3.694
3.663
3.619
3.56
3.489
3.406
3.312
3.208
3.094
2.973
2.846
2.713
2.576
2.437
2.297
2.157
2.018
1.881
1.748
1.619
1.495
1.378
1.267
1.164
1.068
0.9805
0.9008
0.8292
0.7655
0.7095
0.6609
3.712
3.697
3.667
3.623
3.565
3.495
3.413
3.32
3.217
3.106
2.986
2.86
2.729
2.595
2.457
2.319
2.18
2.042
1.907
1.775
1.647
1.525
1.408
1.298
1.195
1.099
1.012
0.9316
0.8596
0.7955
0.739
0.6898
3.678
3.662
3.63
3.583
3.523
3.449
3.362
3.264
3.156
3.038
2.912
2.779
2.641
2.5
2.356
2.21
2.065
1.922
1.781
1.644
1.512
1.386
1.266
1.154
1.05
0.954
0.8666
0.7877
0.7174
0.6554
0.6015
0.5552
3.679
3.663
3.631
3.585
3.525
3.451
3.365
3.267
3.159
3.042
2.916
2.784
2.647
2.506
2.363
2.218
2.073
1.93
1.79
1.653
1.522
1.396
1.277
1.165
1.06
0.9645
0.8769
0.7979
0.7274
0.6652
0.611
0.5645
3.681
3.665
3.634
3.588
3.528
3.455
3.37
3.273
3.166
3.05
2.925
2.795
2.659
2.519
2.376
2.233
2.089
1.947
1.808
1.672
1.541
1.416
1.297
1.185
1.081
0.9853
0.8976
0.8184
0.7475
0.6849
0.6302
0.5831
3.684
3.668
3.637
3.592
3.533
3.461
3.377
3.282
3.176
3.061
2.939
2.81
2.676
2.537
2.397
2.255
2.113
1.973
1.835
1.7
1.57
1.446
1.328
1.216
1.112
1.017
0.9287
0.8491
0.7778
0.7145
0.6591
0.6113
3.651
3.634
3.602
3.554
3.492
3.416
3.327
3.227
3.115
2.994
2.865
2.73
2.589
2.444
2.296
2.148
1.999
1.853
1.71
1.57
1.436
1.308
1.188
1.075
0.9701
0.8742
0.7872
0.7091
0.64
0.5795
0.5273
0.483
3.652
3.635
3.603
3.556
3.494
3.418
3.33
3.23
3.119
2.999
2.87
2.735
2.594
2.45
2.303
2.155
2.008
1.862
1.719
1.58
1.446
1.319
1.198
1.085
0.9807
0.8847
0.7975
0.7193
0.6499
0.5891
0.5366
0.4919
3.654
3.638
3.606
3.559
3.498
3.423
3.335
3.236
3.126
3.007
2.88
2.746
2.606
2.463
2.317
2.171
2.024
1.879
1.737
1.599
1.466
1.339
1.219
1.106
1.002
0.9056
0.8182
0.7396
0.6697
0.6084
0.5553
0.5099
3.657
3.641
3.609
3.563
3.503
3.429
3.343
3.245
3.136
3.019
2.893
2.761
2.624
2.482
2.339
2.193
2.049
1.905
1.765
1.628
1.496
1.37
1.25
1.138
1.033
0.937
0.8493
0.7702
0.6997
0.6376
0.5836
0.5373
3.626
3.608
3.575
3.527
3.463
3.385
3.294
3.191
3.077
2.953
2.821
2.682
2.538
2.39
2.239
2.087
1.936
1.787
1.641
1.499
1.363
1.234
1.112
0.9987
0.8938
0.7981
0.7117
0.6347
0.567
0.5083
0.4581
0.4159
3.627
3.61
3.577
3.528
3.465
3.387
3.297
3.194
3.081
2.957
2.826
2.688
2.544
2.396
2.246
2.095
1.945
1.796
1.65
1.509
1.374
1.245
1.123
1.009
0.9044
0.8086
0.722
0.6448
0.5768
0.5177
0.4671
0.4245
3.629
3.612
3.579
3.531
3.469
3.392
3.302
3.201
3.088
2.966
2.836
2.699
2.556
2.41
2.261
2.111
1.962
1.814
1.669
1.529
1.394
1.265
1.144
1.03
0.9255
0.8295
0.7426
0.6649
0.5963
0.5365
0.4852
0.4418
3.632
3.615
3.583
3.536
3.474
3.398
3.31
3.21
3.099
2.978
2.85
2.715
2.574
2.43
2.283
2.135
1.987
1.841
1.697
1.558
1.424
1.296
1.175
1.062
0.9573
0.861
0.7736
0.6952
0.6258
0.565
0.5127
0.4682
3.602
3.584
3.55
3.501
3.435
3.356
3.263
3.157
3.041
2.914
2.779
2.637
2.489
2.338
2.184
2.03
1.876
1.724
1.575
1.432
1.294
1.163
1.041
0.9264
0.8214
0.7261
0.6406
0.5649
0.4989
0.4422
0.3942
0.3544
3.603
3.586
3.552
3.502
3.437
3.358
3.266
3.161
3.044
2.918
2.784
2.643
2.496
2.345
2.192
2.038
1.884
1.733
1.585
1.442
1.304
1.174
1.051
0.9371
0.8321
0.7366
0.6508
0.5748
0.5084
0.4513
0.4029
0.3626
3.605
3.588
3.555
3.506
3.441
3.363
3.271
3.167
3.052
2.927
2.794
2.654
2.508
2.359
2.207
2.054
1.902
1.751
1.604
1.462
1.325
1.195
1.073
0.9584
0.8533
0.7575
0.6713
0.5947
0.5275
0.4695
0.4202
0.3791
3.608
3.591
3.559
3.51
3.447
3.37
3.279
3.177
3.063
2.94
2.809
2.671
2.527
2.379
2.229
2.078
1.928
1.779
1.633
1.492
1.356
1.226
1.104
0.9905
0.8852
0.789
0.7021
0.6246
0.5564
0.4973
0.4467
0.4043
3.579
3.562
3.527
3.476
3.41
3.329
3.233
3.126
3.006
2.877
2.739
2.594
2.444
2.289
2.133
1.975
1.818
1.664
1.513
1.368
1.228
1.096
0.9728
0.8582
0.7534
0.6587
0.5743
0.5001
0.436
0.3815
0.336
0.2988
3.581
3.563
3.529
3.478
3.412
3.331
3.236
3.129
3.01
2.882
2.744
2.6
2.45
2.297
2.14
1.984
1.827
1.674
1.523
1.378
1.239
1.107
0.9836
0.869
0.764
0.6691
0.5844
0.5098
0.4452
0.3902
0.3442
0.3065
3.583
3.566
3.532
3.481
3.416
3.336
3.242
3.136
3.018
2.891
2.755
2.612
2.463
2.311
2.156
2
1.845
1.692
1.543
1.398
1.26
1.128
1.005
0.8905
0.7853
0.6899
0.6046
0.5293
0.4638
0.4078
0.3608
0.3221
3.586
3.569
3.536
3.486
3.422
3.343
3.25
3.146
3.03
2.904
2.77
2.629
2.482
2.332
2.179
2.025
1.872
1.72
1.572
1.429
1.291
1.16
1.037
0.9227
0.8173
0.7213
0.6351
0.5587
0.492
0.4347
0.3862
0.346
3.559
3.541
3.506
3.454
3.386
3.303
3.206
3.096
2.975
2.843
2.702
2.554
2.401
2.244
2.084
1.924
1.765
1.608
1.455
1.308
1.167
1.034
0.9094
0.7947
0.6901
0.5962
0.513
0.4405
0.3785
0.3265
0.2836
0.2491
3.56
3.542
3.507
3.456
3.388
3.306
3.209
3.1
2.979
2.847
2.707
2.56
2.408
2.251
2.092
1.933
1.774
1.618
1.465
1.318
1.178
1.045
0.9203
0.8055
0.7008
0.6065
0.523
0.45
0.3875
0.3348
0.2914
0.2564
3.563
3.545
3.51
3.459
3.392
3.311
3.215
3.107
2.987
2.857
2.718
2.572
2.421
2.266
2.108
1.95
1.792
1.637
1.485
1.339
1.199
1.066
0.942
0.8271
0.722
0.6272
0.5429
0.4691
0.4055
0.3517
0.3071
0.2709
3.566
3.549
3.514
3.464
3.398
3.318
3.223
3.117
2.998
2.87
2.734
2.59
2.44
2.287
2.131
1.975
1.819
1.665
1.515
1.37
1.231
1.099
0.9746
0.8595
0.754
0.6584
0.5731
0.4979
0.4329
0.3775
0.3312
0.2934
3.54
3.522
3.486
3.433
3.364
3.28
3.181
3.069
2.945
2.811
2.668
2.517
2.361
2.202
2.039
1.877
1.715
1.556
1.401
1.252
1.11
0.9758
0.851
0.7361
0.632
0.5389
0.4572
0.3866
0.3268
0.2773
0.2373
0.2057
3.541
3.523
3.488
3.435
3.366
3.282
3.184
3.072
2.949
2.816
2.673
2.524
2.368
2.209
2.048
1.885
1.724
1.566
1.411
1.263
1.121
0.9868
0.8619
0.747
0.6426
0.5492
0.4669
0.3958
0.3355
0.2853
0.2445
0.2123
3.544
3.526
3.491
3.439
3.371
3.287
3.19
3.08
2.957
2.825
2.684
2.536
2.382
2.224
2.064
1.903
1.743
1.585
1.432
1.284
1.142
1.009
0.8838
0.7686
0.6638
0.5697
0.4866
0.4144
0.3528
0.3013
0.2593
0.2258
3.547
3.53
3.495
3.444
3.377
3.295
3.199
3.09
2.97
2.839
2.7
2.554
2.402
2.246
2.088
1.929
1.77
1.614
1.462
1.315
1.174
1.041
0.9165
0.8011
0.6957
0.6006
0.5163
0.4426
0.3793
0.326
0.2821
0.2468
3.523
3.504
3.468
3.414
3.344
3.258
3.158
3.044
2.918
2.782
2.636
2.484
2.325
2.163
1.998
1.833
1.669
1.508
1.352
1.201
1.058
0.9231
0.7978
0.683
0.5794
0.4873
0.4071
0.3384
0.2811
0.2342
0.197
0.1683
3.524
3.506
3.47
3.416
3.346
3.261
3.161
3.048
2.922
2.787
2.642
2.49
2.332
2.171
2.007
1.842
1.679
1.518
1.362
1.212
1.069
0.9341
0.8088
0.6939
0.5899
0.4975
0.4167
0.3474
0.2893
0.2417
0.2038
0.1743
3.527
3.509
3.473
3.42
3.351
3.266
3.167
3.055
2.931
2.796
2.653
2.502
2.346
2.186
2.023
1.86
1.698
1.538
1.383
1.233
1.091
0.9561
0.8308
0.7155
0.611
0.5177
0.4359
0.3654
0.306
0.2569
0.2175
0.1867
3.53
3.512
3.477
3.425
3.357
3.274
3.176
3.066
2.943
2.811
2.669
2.521
2.366
2.208
2.048
1.886
1.726
1.568
1.414
1.265
1.123
0.9891
0.8637
0.7481
0.6428
0.5484
0.4651
0.3929
0.3315
0.2804
0.2389
0.2061
3.507
3.489
3.452
3.398
3.326
3.239
3.137
3.022
2.894
2.756
2.608
2.453
2.293
2.128
1.961
1.794
1.629
1.466
1.308
1.156
1.011
0.8759
0.7504
0.6357
0.5327
0.4417
0.3629
0.2963
0.2413
0.1972
0.1628
0.1369
3.509
3.49
3.454
3.399
3.329
3.242
3.14
3.026
2.898
2.761
2.614
2.46
2.3
2.136
1.97
1.803
1.638
1.476
1.318
1.167
1.022
0.887
0.7614
0.6466
0.5432
0.4517
0.3723
0.305
0.2492
0.2042
0.169
0.1423
3.511
3.493
3.457
3.403
3.333
3.247
3.147
3.033
2.907
2.771
2.625
2.472
2.314
2.151
1.987
1.821
1.657
1.496
1.339
1.188
1.044
0.9092
0.7835
0.6682
0.5642
0.4717
0.3912
0.3224
0.2651
0.2185
0.1816
0.1534
3.515
3.497
3.461
3.409
3.339
3.255
3.156
3.044
2.92
2.785
2.642
2.491
2.335
2.174
2.011
1.848
1.686
1.526
1.37
1.22
1.077
0.9424
0.8166
0.7008
0.5958
0.5021
0.4199
0.3491
0.2896
0.2407
0.2016
0.1712
3.494
3.475
3.438
3.383
3.311
3.222
3.119
3.002
2.873
2.733
2.583
2.427
2.264
2.098
1.929
1.76
1.593
1.428
1.269
1.116
0.9708
0.8348
0.7091
0.5947
0.4923
0.4023
0.3251
0.2603
0.2077
0.1661
0.1344
0.1112
3.495
3.476
3.439
3.385
3.313
3.225
3.122
3.006
2.877
2.738
2.589
2.433
2.271
2.105
1.937
1.769
1.602
1.439
1.28
1.127
0.9819
0.846
0.7202
0.6055
0.5027
0.4122
0.3342
0.2687
0.2151
0.1726
0.14
0.1159
3.498
3.479
3.443
3.388
3.317
3.23
3.129
3.013
2.886
2.748
2.601
2.446
2.285
2.121
1.954
1.787
1.622
1.459
1.301
1.149
1.004
0.8683
0.7423
0.6272
0.5236
0.432
0.3527
0.2856
0.2303
0.186
0.1516
0.1259
3.502
3.483
3.447
3.394
3.324
3.238
3.138
3.024
2.899
2.763
2.617
2.465
2.307
2.144
1.98
1.815
1.651
1.489
1.332
1.181
1.037
0.9016
0.7755
0.6597
0.5551
0.462
0.3809
0.3116
0.2538
0.207
0.1701
0.1421
3.482
3.463
3.425
3.37
3.297
3.208
3.103
2.985
2.855
2.713
2.562
2.404
2.239
2.071
1.901
1.731
1.562
1.396
1.236
1.082
0.9365
0.8002
0.6745
0.5604
0.4586
0.3696
0.2936
0.2306
0.18
0.1408
0.1116
0.09077
3.483
3.465
3.427
3.372
3.299
3.211
3.107
2.989
2.859
2.718
2.568
2.41
2.247
2.079
1.91
1.74
1.572
1.407
1.247
1.093
0.9477
0.8114
0.6856
0.5712
0.4689
0.3793
0.3026
0.2387
0.1871
0.1469
0.1166
0.09484
3.486
3.467
3.43
3.376
3.304
3.216
3.113
2.997
2.868
2.728
2.579
2.423
2.261
2.095
1.927
1.759
1.591
1.427
1.268
1.115
0.97
0.8338
0.7078
0.5928
0.4897
0.3989
0.3207
0.2551
0.2016
0.1593
0.1271
0.1036
3.49
3.472
3.435
3.381
3.31
3.224
3.123
3.008
2.881
2.743
2.597
2.442
2.283
2.119
1.953
1.786
1.621
1.458
1.3
1.148
1.003
0.8673
0.7409
0.6253
0.521
0.4286
0.3484
0.2804
0.2242
0.1792
0.1443
0.1184
3.472
3.453
3.415
3.359
3.285
3.196
3.09
2.971
2.839
2.697
2.544
2.385
2.219
2.05
1.878
1.707
1.537
1.371
1.209
1.055
0.9089
0.7725
0.647
0.5332
0.432
0.3438
0.269
0.2073
0.1584
0.1211
0.09392
0.07502
3.473
3.454
3.417
3.361
3.288
3.198
3.094
2.975
2.844
2.702
2.55
2.391
2.227
2.058
1.887
1.716
1.547
1.381
1.22
1.066
0.9201
0.7838
0.6581
0.544
0.4423
0.3535
0.2778
0.2152
0.1651
0.1267
0.09837
0.07848
3.476
3.457
3.42
3.365
3.292
3.204
3.1
2.983
2.853
2.712
2.562
2.404
2.241
2.074
1.905
1.735
1.567
1.402
1.242
1.088
0.9425
0.8062
0.6802
0.5655
0.4629
0.3728
0.2956
0.2311
0.1789
0.1383
0.108
0.08622
3.48
3.461
3.425
3.37
3.299
3.212
3.11
2.994
2.866
2.727
2.579
2.424
2.263
2.098
1.93
1.763
1.596
1.433
1.274
1.121
0.976
0.8397
0.7134
0.5979
0.4941
0.4023
0.3228
0.2558
0.2008
0.1572
0.124
0.09966
3.464
3.445
3.406
3.35
3.276
3.186
3.08
2.96
2.827
2.684
2.531
2.37
2.204
2.033
1.861
1.688
1.518
1.351
1.189
1.034
0.8884
0.7521
0.6269
0.5136
0.413
0.3255
0.2514
0.1906
0.1427
0.1067
0.08085
0.06329
3.465
3.446
3.408
3.352
3.278
3.188
3.083
2.964
2.832
2.689
2.537
2.377
2.211
2.041
1.87
1.698
1.528
1.361
1.2
1.046
0.8996
0.7634
0.638
0.5244
0.4233
0.3351
0.2601
0.1983
0.1492
0.1119
0.08485
0.06623
3.468
3.449
3.411
3.356
3.283
3.194
3.09
2.972
2.841
2.699
2.548
2.39
2.226
2.057
1.887
1.717
1.548
1.382
1.222
1.068
0.922
0.7858
0.66
0.5458
0.4437
0.3543
0.2777
0.2139
0.1625
0.1229
0.09368
0.0731
3.472
3.453
3.416
3.362
3.29
3.202
3.099
2.983
2.854
2.715
2.566
2.409
2.247
2.081
1.913
1.745
1.577
1.413
1.254
1.101
0.9555
0.8193
0.6931
0.5781
0.4747
0.3835
0.3046
0.2382
0.1839
0.1411
0.1088
0.08558
3.457
3.438
3.4
3.343
3.269
3.178
3.072
2.952
2.819
2.674
2.521
2.36
2.193
2.022
1.849
1.676
1.505
1.338
1.176
1.021
0.8751
0.7392
0.6145
0.5019
0.4021
0.3152
0.2415
0.181
0.1332
0.09738
0.07196
0.05492
3.459
3.44
3.402
3.345
3.271
3.181
3.075
2.956
2.823
2.68
2.527
2.366
2.2
2.03
1.858
1.685
1.515
1.348
1.187
1.032
0.8864
0.7504
0.6256
0.5126
0.4122
0.3247
0.2502
0.1886
0.1395
0.1024
0.07566
0.05746
3.462
3.443
3.405
3.349
3.276
3.187
3.082
2.963
2.832
2.69
2.539
2.38
2.215
2.046
1.875
1.704
1.535
1.369
1.208
1.054
0.9087
0.7728
0.6475
0.5339
0.4325
0.3437
0.2676
0.204
0.1527
0.1131
0.08404
0.06372
3.465
3.447
3.41
3.355
3.283
3.195
3.092
2.975
2.846
2.705
2.556
2.399
2.237
2.07
1.901
1.732
1.565
1.4
1.241
1.087
0.9422
0.8062
0.6805
0.566
0.4632
0.3727
0.2943
0.2282
0.174
0.1312
0.09887
0.07573
3.453
3.433
3.395
3.338
3.264
3.173
3.067
2.946
2.813
2.669
2.515
2.354
2.186
2.015
1.842
1.669
1.498
1.331
1.169
1.015
0.8692
0.7339
0.6099
0.4981
0.3992
0.3131
0.2399
0.1792
0.1306
0.09361
0.06708
0.04934
3.454
3.435
3.397
3.34
3.267
3.176
3.07
2.95
2.818
2.674
2.521
2.36
2.194
2.024
1.851
1.679
1.508
1.341
1.18
1.026
0.8804
0.745
0.6208
0.5087
0.4092
0.3225
0.2485
0.1868
0.137
0.09861
0.07067
0.05161
3.457
3.438
3.4
3.344
3.271
3.182
3.077
2.958
2.827
2.685
2.533
2.374
2.209
2.04
1.869
1.698
1.528
1.362
1.202
1.048
0.9027
0.7672
0.6427
0.5298
0.4293
0.3413
0.2657
0.2022
0.1503
0.1095
0.07904
0.0576
3.461
3.442
3.405
3.35
3.278
3.19
3.087
2.97
2.84
2.7
2.55
2.393
2.231
2.064
1.895
1.726
1.558
1.393
1.234
1.081
0.9361
0.8005
0.6754
0.5617
0.4598
0.37
0.2923
0.2264
0.1717
0.1279
0.09426
0.06985
3.449
3.43
3.392
3.336
3.261
3.171
3.064
2.944
2.811
2.667
2.513
2.352
2.185
2.014
1.841
1.669
1.498
1.331
1.169
1.015
0.8703
0.7356
0.6124
0.5015
0.4036
0.3186
0.2463
0.1858
0.1362
0.0966
0.06675
0.04618
3.451
3.432
3.394
3.338
3.264
3.173
3.068
2.948
2.816
2.672
2.519
2.359
2.192
2.022
1.85
1.678
1.508
1.341
1.18
1.026
0.8815
0.7467
0.6232
0.512
0.4135
0.3279
0.2547
0.1933
0.1426
0.1018
0.07049
0.04833
3.454
3.435
3.397
3.341
3.268
3.179
3.074
2.956
2.825
2.683
2.531
2.372
2.207
2.039
1.868
1.697
1.528
1.362
1.202
1.048
0.9037
0.7688
0.6449
0.5329
0.4334
0.3464
0.2718
0.2087
0.1562
0.1132
0.07937
0.05438
3.458
3.439
3.402
3.347
3.275
3.187
3.084
2.967
2.838
2.698
2.549
2.392
2.229
2.062
1.894
1.725
1.557
1.393
1.234
1.081
0.9369
0.8019
0.6774
0.5645
0.4635
0.3748
0.298
0.2327
0.1779
0.1325
0.09591
0.06784
3.448
3.429
3.391
3.334
3.261
3.17
3.064
2.944
2.812
2.668
2.515
2.354
2.187
2.017
1.845
1.672
1.502
1.335
1.175
1.021
0.8764
0.7422
0.6195
0.5093
0.4121
0.328
0.2566
0.197
0.1477
0.1068
0.07237
0.04506
3.449
3.43
3.393
3.336
3.263
3.173
3.068
2.948
2.816
2.673
2.521
2.361
2.195
2.025
1.853
1.682
1.512
1.346
1.185
1.032
0.8875
0.7532
0.6303
0.5197
0.4219
0.3371
0.2649
0.2044
0.1542
0.1122
0.07653
0.04717
3.452
3.433
3.396
3.34
3.268
3.179
3.074
2.956
2.825
2.683
2.532
2.374
2.209
2.041
1.871
1.701
1.532
1.367
1.207
1.054
0.9096
0.7752
0.6519
0.5405
0.4416
0.3555
0.2818
0.2196
0.1676
0.1239
0.08619
0.0535
3.456
3.438
3.401
3.346
3.274
3.187
3.084
2.967
2.838
2.699
2.55
2.393
2.231
2.065
1.897
1.728
1.561
1.398
1.239
1.087
0.9427
0.8082
0.6842
0.5718
0.4715
0.3835
0.3077
0.2433
0.1891
0.1435
0.1042
0.06906
2.984
2.862
2.736
2.608
2.478
2.347
2.218
2.09
1.965
1.843
1.726
1.614
1.507
1.407
1.313
1.226
1.147
1.074
1.008
0.9501
0.8986
3.12
3.006
2.886
2.763
2.637
2.51
2.382
2.255
2.129
2.006
1.887
1.771
1.661
1.556
1.456
1.363
1.277
1.198
1.125
1.06
1.001
0.9491
3.247
3.142
3.03
2.914
2.794
2.672
2.548
2.423
2.299
2.176
2.056
1.939
1.825
1.717
1.613
1.515
1.423
1.338
1.259
1.187
1.121
1.063
1.01
3.363
3.268
3.166
3.058
2.945
2.829
2.711
2.59
2.469
2.349
2.23
2.112
1.998
1.888
1.781
1.68
1.584
1.493
1.409
1.331
1.259
1.194
1.135
1.083
3.381
3.289
3.191
3.088
2.98
2.868
2.753
2.637
2.521
2.404
2.289
2.175
2.065
1.957
1.854
1.755
1.661
1.572
1.489
1.412
1.341
1.277
1.218
1.166
3.48
3.399
3.312
3.218
3.119
3.016
2.909
2.799
2.688
2.576
2.464
2.353
2.244
2.137
2.033
1.933
1.837
1.746
1.66
1.579
1.503
1.434
1.37
1.313
1.261
3.562
3.493
3.417
3.334
3.245
3.151
3.053
2.951
2.847
2.741
2.635
2.528
2.422
2.318
2.215
2.116
2.02
1.927
1.839
1.756
1.677
1.604
1.536
1.474
1.417
1.366
3.627
3.57
3.505
3.434
3.356
3.272
3.184
3.091
2.995
2.897
2.797
2.696
2.595
2.495
2.396
2.298
2.204
2.112
2.023
1.939
1.859
1.783
1.713
1.647
1.587
1.532
1.482
3.674
3.628
3.575
3.515
3.449
3.376
3.298
3.215
3.129
3.039
2.947
2.854
2.759
2.664
2.57
2.476
2.385
2.295
2.208
2.125
2.045
1.968
1.896
1.829
1.766
1.708
1.655
1.607
3.702
3.668
3.626
3.577
3.522
3.461
3.393
3.321
3.245
3.165
3.082
2.997
2.91
2.822
2.734
2.646
2.559
2.474
2.39
2.309
2.23
2.155
2.083
2.015
1.951
1.892
1.837
1.786
1.741
3.712
3.689
3.658
3.62
3.575
3.525
3.469
3.408
3.342
3.272
3.199
3.124
3.045
2.966
2.885
2.804
2.723
2.643
2.564
2.487
2.411
2.338
2.268
2.201
2.138
2.078
2.022
1.971
1.923
1.88
3.706
3.691
3.67
3.642
3.608
3.568
3.523
3.473
3.418
3.359
3.296
3.23
3.162
3.092
3.02
2.946
2.873
2.799
2.726
2.654
2.584
2.515
2.448
2.383
2.322
2.263
2.208
2.156
2.109
2.064
2.024
3.683
3.676
3.663
3.645
3.62
3.591
3.556
3.516
3.472
3.423
3.371
3.316
3.257
3.197
3.134
3.07
3.005
2.939
2.873
2.808
2.743
2.679
2.617
2.557
2.498
2.442
2.389
2.339
2.292
2.248
2.207
2.171
3.645
3.64
3.629
3.613
3.592
3.567
3.537
3.503
3.464
3.423
3.377
3.329
3.279
3.226
3.171
3.115
3.058
3
2.942
2.884
2.827
2.771
2.715
2.661
2.609
2.559
2.511
2.466
2.423
2.384
2.347
2.314
3.605
3.6
3.591
3.578
3.56
3.539
3.513
3.484
3.451
3.416
3.377
3.335
3.292
3.246
3.199
3.15
3.1
3.05
2.999
2.948
2.897
2.847
2.798
2.75
2.704
2.659
2.616
2.575
2.537
2.501
2.468
2.437
3.745
3.73
3.701
3.659
3.604
3.538
3.459
3.371
3.272
3.165
3.051
2.931
2.806
2.676
2.545
2.411
2.278
2.145
2.014
1.887
1.763
1.644
1.53
1.422
1.32
1.226
1.138
1.058
0.9858
0.9207
0.8628
0.812
3.748
3.734
3.706
3.665
3.611
3.546
3.469
3.383
3.287
3.182
3.071
2.953
2.831
2.704
2.575
2.445
2.314
2.184
2.055
1.93
1.808
1.69
1.578
1.471
1.371
1.277
1.19
1.11
1.037
0.9718
0.9135
0.8622
3.752
3.737
3.71
3.67
3.618
3.555
3.481
3.396
3.303
3.202
3.093
2.979
2.86
2.737
2.611
2.484
2.356
2.229
2.104
1.981
1.861
1.746
1.635
1.53
1.431
1.338
1.251
1.172
1.099
1.034
0.9752
0.9234
3.754
3.741
3.714
3.676
3.625
3.564
3.493
3.411
3.321
3.223
3.118
3.008
2.892
2.773
2.651
2.528
2.404
2.281
2.159
2.039
1.922
1.81
1.701
1.598
1.5
1.409
1.323
1.245
1.172
1.107
1.048
0.9959
3.756
3.743
3.717
3.68
3.632
3.573
3.505
3.426
3.34
3.246
3.145
3.039
2.928
2.813
2.696
2.577
2.457
2.338
2.22
2.104
1.991
1.881
1.776
1.675
1.579
1.489
1.405
1.328
1.256
1.191
1.132
1.08
3.756
3.743
3.719
3.684
3.638
3.582
3.516
3.442
3.359
3.269
3.173
3.071
2.965
2.855
2.743
2.629
2.515
2.4
2.287
2.175
2.066
1.96
1.858
1.76
1.667
1.579
1.497
1.421
1.35
1.286
1.228
1.176
3.753
3.741
3.719
3.685
3.642
3.589
3.526
3.456
3.378
3.293
3.201
3.105
3.004
2.9
2.793
2.685
2.575
2.466
2.358
2.251
2.147
2.045
1.947
1.852
1.763
1.678
1.598
1.523
1.454
1.391
1.334
1.283
3.748
3.737
3.715
3.684
3.643
3.593
3.535
3.469
3.395
3.315
3.229
3.139
3.044
2.945
2.845
2.742
2.639
2.536
2.433
2.332
2.232
2.135
2.042
1.951
1.865
1.784
1.707
1.635
1.568
1.507
1.451
1.401
3.739
3.729
3.709
3.68
3.642
3.595
3.541
3.479
3.411
3.336
3.256
3.171
3.083
2.991
2.897
2.801
2.704
2.607
2.511
2.415
2.322
2.23
2.141
2.056
1.974
1.896
1.823
1.754
1.69
1.631
1.577
1.529
3.726
3.716
3.698
3.671
3.636
3.593
3.543
3.487
3.424
3.355
3.281
3.203
3.121
3.036
2.949
2.86
2.77
2.68
2.59
2.501
2.414
2.328
2.245
2.165
2.088
2.015
1.945
1.88
1.819
1.763
1.712
1.666
3.708
3.699
3.682
3.658
3.626
3.587
3.542
3.49
3.433
3.37
3.303
3.231
3.157
3.079
2.999
2.918
2.835
2.752
2.67
2.588
2.507
2.428
2.351
2.277
2.205
2.137
2.072
2.011
1.954
1.901
1.853
1.809
3.683
3.675
3.66
3.638
3.61
3.575
3.535
3.489
3.437
3.381
3.321
3.256
3.189
3.119
3.047
2.973
2.899
2.824
2.749
2.674
2.6
2.528
2.458
2.39
2.324
2.261
2.202
2.145
2.093
2.044
1.999
1.958
3.652
3.645
3.632
3.613
3.588
3.558
3.522
3.481
3.436
3.387
3.333
3.277
3.217
3.155
3.091
3.026
2.959
2.892
2.825
2.758
2.692
2.627
2.564
2.502
2.443
2.386
2.331
2.28
2.232
2.187
2.146
2.109
3.614
3.608
3.597
3.581
3.559
3.533
3.503
3.468
3.429
3.386
3.34
3.291
3.239
3.186
3.13
3.073
3.014
2.956
2.896
2.838
2.779
2.722
2.665
2.61
2.557
2.506
2.458
2.412
2.368
2.328
2.291
2.257
3.572
3.567
3.558
3.545
3.527
3.505
3.479
3.449
3.416
3.379
3.34
3.298
3.253
3.207
3.158
3.109
3.058
3.007
2.955
2.903
2.852
2.801
2.751
2.702
2.655
2.609
2.566
2.524
2.485
2.449
2.415
2.384
3.716
3.7
3.671
3.628
3.571
3.502
3.422
3.331
3.23
3.12
3.003
2.879
2.751
2.618
2.483
2.347
2.21
2.075
1.941
1.811
1.685
1.563
1.448
1.338
1.236
1.141
1.053
0.9729
0.9005
0.8359
0.7787
0.7289
3.719
3.704
3.675
3.633
3.578
3.511
3.433
3.344
3.245
3.138
3.023
2.902
2.777
2.647
2.515
2.381
2.247
2.114
1.983
1.855
1.731
1.611
1.497
1.389
1.287
1.192
1.105
1.025
0.9521
0.887
0.8292
0.7785
3.722
3.708
3.68
3.639
3.586
3.521
3.444
3.358
3.262
3.158
3.047
2.929
2.807
2.681
2.552
2.422
2.291
2.161
2.033
1.908
1.786
1.668
1.556
1.449
1.348
1.254
1.167
1.087
1.015
0.949
0.8907
0.8393
3.725
3.711
3.684
3.645
3.593
3.53
3.457
3.373
3.281
3.18
3.073
2.959
2.841
2.718
2.594
2.467
2.341
2.214
2.09
1.967
1.849
1.734
1.623
1.518
1.419
1.327
1.24
1.161
1.088
1.022
0.9636
0.9117
3.727
3.714
3.688
3.65
3.6
3.54
3.469
3.389
3.3
3.204
3.1
2.991
2.877
2.76
2.64
2.518
2.395
2.273
2.153
2.034
1.919
1.807
1.7
1.597
1.5
1.409
1.324
1.245
1.173
1.107
1.048
0.996
3.727
3.714
3.69
3.653
3.606
3.549
3.481
3.405
3.32
3.228
3.129
3.025
2.916
2.804
2.689
2.572
2.455
2.338
2.222
2.108
1.996
1.888
1.784
1.684
1.59
1.501
1.417
1.34
1.268
1.203
1.145
1.093
3.725
3.713
3.689
3.655
3.611
3.556
3.492
3.42
3.34
3.252
3.159
3.06
2.957
2.85
2.741
2.63
2.518
2.406
2.295
2.186
2.079
1.976
1.875
1.779
1.688
1.601
1.52
1.444
1.375
1.311
1.253
1.201
3.72
3.708
3.686
3.654
3.612
3.561
3.502
3.434
3.358
3.276
3.188
3.095
2.998
2.897
2.794
2.689
2.584
2.478
2.373
2.269
2.168
2.069
1.973
1.881
1.793
1.71
1.632
1.559
1.491
1.429
1.372
1.321
3.711
3.7
3.68
3.65
3.611
3.564
3.508
3.445
3.375
3.298
3.216
3.129
3.039
2.945
2.848
2.75
2.651
2.552
2.453
2.356
2.26
2.167
2.076
1.989
1.905
1.826
1.751
1.681
1.616
1.556
1.501
1.452
3.698
3.688
3.669
3.642
3.606
3.562
3.511
3.453
3.388
3.318
3.242
3.162
3.078
2.991
2.902
2.811
2.719
2.627
2.535
2.444
2.355
2.268
2.183
2.101
2.023
1.948
1.877
1.811
1.749
1.692
1.639
1.592
3.679
3.67
3.653
3.628
3.596
3.556
3.509
3.457
3.398
3.334
3.265
3.192
3.115
3.036
2.954
2.871
2.787
2.702
2.618
2.534
2.452
2.371
2.292
2.216
2.144
2.074
2.008
1.946
1.888
1.834
1.785
1.74
3.654
3.646
3.631
3.609
3.58
3.544
3.503
3.455
3.403
3.345
3.284
3.218
3.149
3.078
3.004
2.929
2.853
2.776
2.699
2.623
2.548
2.475
2.403
2.333
2.266
2.202
2.141
2.084
2.03
1.981
1.935
1.893
3.623
3.615
3.602
3.583
3.557
3.526
3.49
3.448
3.402
3.352
3.297
3.239
3.178
3.115
3.05
2.983
2.915
2.847
2.778
2.71
2.643
2.577
2.512
2.449
2.389
2.331
2.276
2.223
2.174
2.129
2.087
2.049
3.583
3.578
3.566
3.55
3.528
3.502
3.47
3.435
3.395
3.352
3.305
3.255
3.202
3.147
3.09
3.032
2.972
2.913
2.852
2.792
2.733
2.674
2.617
2.561
2.507
2.455
2.406
2.359
2.315
2.274
2.236
2.201
3.541
3.536
3.527
3.513
3.495
3.473
3.446
3.416
3.382
3.345
3.305
3.262
3.216
3.169
3.12
3.069
3.018
2.965
2.913
2.86
2.808
2.756
2.705
2.656
2.608
2.561
2.517
2.475
2.435
2.398
2.364
2.333
3.687
3.672
3.642
3.597
3.54
3.469
3.386
3.293
3.189
3.077
2.956
2.83
2.698
2.562
2.424
2.284
2.144
2.006
1.87
1.737
1.608
1.485
1.368
1.257
1.154
1.058
0.9703
0.8904
0.8185
0.7545
0.6983
0.6496
3.691
3.676
3.646
3.603
3.547
3.478
3.397
3.306
3.205
3.095
2.977
2.853
2.725
2.592
2.456
2.32
2.183
2.047
1.913
1.782
1.656
1.534
1.418
1.309
1.206
1.111
1.023
0.9424
0.87
0.8053
0.7482
0.6984
3.695
3.68
3.651
3.609
3.555
3.488
3.41
3.321
3.222
3.116
3.002
2.881
2.756
2.627
2.495
2.361
2.228
2.095
1.964
1.836
1.712
1.593
1.478
1.37
1.268
1.173
1.086
1.005
0.9325
0.8672
0.8093
0.7585
3.698
3.684
3.656
3.615
3.563
3.498
3.422
3.337
3.242
3.139
3.028
2.912
2.791
2.666
2.538
2.409
2.279
2.15
2.023
1.898
1.777
1.66
1.548
1.441
1.341
1.247
1.16
1.079
1.006
0.9407
0.8821
0.8305
3.7
3.686
3.66
3.621
3.57
3.508
3.436
3.353
3.262
3.163
3.057
2.945
2.829
2.708
2.585
2.461
2.336
2.211
2.088
1.967
1.849
1.735
1.626
1.521
1.423
1.33
1.244
1.165
1.092
1.026
0.967
0.9148
3.7
3.687
3.662
3.625
3.576
3.517
3.448
3.37
3.283
3.189
3.087
2.981
2.869
2.754
2.636
2.517
2.397
2.277
2.159
2.042
1.928
1.818
1.712
1.611
1.514
1.424
1.339
1.261
1.189
1.123
1.064
1.012
3.698
3.686
3.662
3.627
3.581
3.525
3.46
3.386
3.303
3.214
3.118
3.017
2.911
2.802
2.69
2.576
2.462
2.348
2.235
2.123
2.014
1.908
1.806
1.708
1.615
1.527
1.444
1.368
1.297
1.232
1.174
1.121
3.693
3.681
3.659
3.626
3.583
3.531
3.47
3.4
3.323
3.239
3.149
3.053
2.954
2.851
2.745
2.638
2.53
2.422
2.315
2.209
2.105
2.004
1.907
1.813
1.723
1.639
1.559
1.484
1.415
1.352
1.295
1.243
3.684
3.673
3.652
3.622
3.582
3.533
3.476
3.412
3.34
3.262
3.178
3.089
2.996
2.9
2.801
2.701
2.6
2.498
2.398
2.298
2.2
2.105
2.013
1.924
1.839
1.758
1.681
1.61
1.544
1.483
1.427
1.377
3.671
3.661
3.642
3.614
3.577
3.532
3.48
3.42
3.354
3.282
3.205
3.123
3.037
2.948
2.857
2.764
2.67
2.576
2.482
2.39
2.298
2.209
2.123
2.039
1.959
1.883
1.811
1.743
1.68
1.622
1.569
1.52
3.652
3.643
3.625
3.6
3.567
3.526
3.479
3.425
3.364
3.299
3.229
3.154
3.076
2.995
2.911
2.826
2.74
2.654
2.568
2.482
2.398
2.316
2.236
2.158
2.084
2.013
1.945
1.882
1.823
1.768
1.718
1.672
3.627
3.619
3.603
3.58
3.551
3.515
3.472
3.424
3.37
3.311
3.248
3.181
3.111
3.038
2.963
2.886
2.808
2.73
2.652
2.574
2.498
2.423
2.35
2.279
2.21
2.145
2.083
2.025
1.97
1.919
1.872
1.83
3.595
3.587
3.574
3.554
3.528
3.497
3.459
3.417
3.37
3.318
3.263
3.204
3.142
3.077
3.01
2.942
2.873
2.803
2.734
2.664
2.596
2.528
2.462
2.398
2.337
2.278
2.221
2.168
2.118
2.072
2.029
1.99
3.555
3.549
3.537
3.52
3.498
3.471
3.44
3.403
3.363
3.318
3.271
3.22
3.166
3.11
3.052
2.993
2.932
2.871
2.81
2.749
2.689
2.629
2.571
2.514
2.459
2.406
2.356
2.308
2.263
2.221
2.183
2.148
3.511
3.507
3.497
3.483
3.465
3.442
3.415
3.384
3.35
3.312
3.271
3.227
3.181
3.133
3.083
3.032
2.979
2.926
2.873
2.819
2.766
2.713
2.662
2.611
2.562
2.515
2.47
2.428
2.387
2.35
2.315
2.283
3.661
3.645
3.614
3.569
3.509
3.437
3.352
3.256
3.15
3.035
2.911
2.782
2.647
2.508
2.366
2.223
2.081
1.94
1.801
1.666
1.535
1.41
1.291
1.179
1.075
0.979
0.891
0.8113
0.7401
0.677
0.622
0.5746
3.665
3.649
3.619
3.575
3.517
3.446
3.364
3.27
3.166
3.054
2.933
2.806
2.674
2.538
2.4
2.26
2.12
1.982
1.845
1.712
1.583
1.46
1.342
1.231
1.128
1.032
0.9435
0.8633
0.7913
0.7272
0.671
0.6224
3.669
3.653
3.624
3.581
3.525
3.457
3.376
3.285
3.185
3.075
2.958
2.835
2.707
2.574
2.439
2.303
2.167
2.031
1.898
1.767
1.641
1.519
1.403
1.294
1.191
1.095
1.007
0.9264
0.8537
0.7888
0.7314
0.6815
3.672
3.657
3.629
3.588
3.533
3.467
3.39
3.302
3.205
3.099
2.986
2.867
2.743
2.615
2.484
2.352
2.219
2.088
1.958
1.831
1.707
1.588
1.474
1.366
1.264
1.169
1.082
1.001
0.9278
0.8621
0.8038
0.7527
3.674
3.66
3.633
3.593
3.541
3.478
3.404
3.319
3.226
3.125
3.016
2.901
2.782
2.659
2.533
2.406
2.278
2.15
2.025
1.901
1.781
1.665
1.554
1.448
1.348
1.254
1.167
1.087
1.014
0.9477
0.8887
0.8366
3.675
3.661
3.635
3.597
3.548
3.488
3.417
3.337
3.248
3.151
3.047
2.938
2.824
2.706
2.586
2.464
2.341
2.219
2.098
1.979
1.863
1.751
1.643
1.539
1.442
1.35
1.264
1.185
1.112
1.046
0.9864
0.9338
3.673
3.66
3.636
3.6
3.553
3.496
3.429
3.353
3.269
3.177
3.079
2.975
2.867
2.755
2.641
2.525
2.408
2.291
2.176
2.062
1.951
1.843
1.739
1.639
1.544
1.455
1.371
1.293
1.221
1.156
1.097
1.044
3.668
3.656
3.633
3.599
3.556
3.502
3.439
3.368
3.289
3.203
3.111
3.013
2.911
2.806
2.698
2.589
2.478
2.368
2.258
2.15
2.045
1.942
1.842
1.747
1.655
1.569
1.488
1.412
1.342
1.278
1.22
1.168
3.659
3.648
3.627
3.595
3.555
3.505
3.447
3.38
3.307
3.227
3.141
3.05
2.955
2.857
2.756
2.654
2.55
2.447
2.344
2.242
2.143
2.045
1.951
1.86
1.774
1.691
1.614
1.541
1.473
1.411
1.355
1.304
3.646
3.635
3.616
3.587
3.55
3.504
3.45
3.389
3.322
3.248
3.169
3.085
2.998
2.907
2.814
2.719
2.623
2.527
2.431
2.337
2.244
2.153
2.065
1.979
1.898
1.82
1.747
1.677
1.613
1.554
1.5
1.451
3.626
3.617
3.599
3.573
3.54
3.498
3.45
3.394
3.333
3.266
3.194
3.118
3.038
2.955
2.87
2.783
2.695
2.607
2.519
2.432
2.346
2.262
2.181
2.102
2.026
1.954
1.885
1.82
1.76
1.704
1.653
1.607
3.601
3.593
3.577
3.554
3.524
3.487
3.443
3.394
3.339
3.279
3.215
3.146
3.074
3
2.923
2.845
2.766
2.686
2.606
2.527
2.449
2.373
2.298
2.226
2.156
2.09
2.027
1.967
1.911
1.86
1.812
1.769
3.568
3.561
3.547
3.527
3.501
3.468
3.43
3.387
3.339
3.286
3.23
3.17
3.106
3.041
2.973
2.903
2.833
2.762
2.691
2.62
2.55
2.482
2.415
2.35
2.287
2.227
2.169
2.115
2.064
2.017
1.974
1.934
3.528
3.522
3.51
3.493
3.47
3.443
3.411
3.374
3.332
3.287
3.238
3.186
3.132
3.075
3.016
2.956
2.894
2.832
2.77
2.708
2.646
2.586
2.526
2.468
2.413
2.359
2.308
2.259
2.214
2.171
2.132
2.096
3.483
3.479
3.469
3.455
3.436
3.413
3.385
3.354
3.319
3.281
3.239
3.195
3.148
3.099
3.048
2.996
2.943
2.889
2.834
2.78
2.726
2.672
2.62