/*--------------------------------*- C++ -*----------------------------------*\
  =========                 |
  \\      /  F ield         | OpenFOAM: The Open Source CFD Toolbox
   \\    /   O peration     | Website:  https://openfoam.org
    \\  /    A nd           | Version:  6
     \\/     M anipulation  |
\*---------------------------------------------------------------------------*/
FoamFile
{
    version     2.0;
    format      ascii;
    class       volScalarField;
    location    "5";
    object      Umag;
}
// * * * * * * * * * * * * * * * * * * * * * * * * * * * * * * * * * * * * * //

dimensions      [0 0 0 0 0 0 0];

internalField   nonuniform List<scalar> 
16128
(
1.457e-05
1.571e-05
1.697e-05
1.835e-05
1.988e-05
2.155e-05
2.338e-05
2.536e-05
2.752e-05
2.983e-05
3.231e-05
3.493e-05
3.768e-05
4.053e-05
4.345e-05
4.637e-05
4.925e-05
1.352e-05
1.454e-05
1.567e-05
1.692e-05
1.83e-05
1.982e-05
2.148e-05
2.329e-05
2.526e-05
2.739e-05
2.968e-05
3.213e-05
3.472e-05
3.744e-05
4.025e-05
4.313e-05
4.601e-05
4.885e-05
1.257e-05
1.348e-05
1.449e-05
1.561e-05
1.684e-05
1.82e-05
1.97e-05
2.133e-05
2.312e-05
2.505e-05
2.714e-05
2.939e-05
3.178e-05
3.432e-05
3.697e-05
3.971e-05
4.251e-05
4.532e-05
4.808e-05
1.171e-05
1.252e-05
1.341e-05
1.441e-05
1.551e-05
1.673e-05
1.806e-05
1.953e-05
2.113e-05
2.287e-05
2.475e-05
2.679e-05
2.897e-05
3.129e-05
3.374e-05
3.63e-05
3.894e-05
4.163e-05
4.432e-05
4.696e-05
3.471e-06
6.316e-06
6.972e-06
7.217e-06
7.436e-06
7.7e-06
8.022e-06
8.408e-06
8.862e-06
9.388e-06
9.991e-06
1.068e-05
1.145e-05
1.233e-05
1.331e-05
1.44e-05
1.562e-05
1.698e-05
1.848e-05
2.015e-05
2.2e-05
2.403e-05
2.626e-05
2.87e-05
3.134e-05
3.42e-05
3.726e-05
4.051e-05
4.39e-05
4.739e-05
5.094e-05
5.445e-05
3.471e-06
6.314e-06
6.97e-06
7.215e-06
7.434e-06
7.697e-06
8.018e-06
8.403e-06
8.855e-06
9.379e-06
9.98e-06
1.066e-05
1.144e-05
1.231e-05
1.328e-05
1.437e-05
1.558e-05
1.693e-05
1.843e-05
2.008e-05
2.191e-05
2.392e-05
2.613e-05
2.854e-05
3.116e-05
3.399e-05
3.701e-05
4.02e-05
4.355e-05
4.699e-05
5.047e-05
5.393e-05
3.469e-06
6.311e-06
6.966e-06
7.21e-06
7.428e-06
7.69e-06
8.009e-06
8.392e-06
8.842e-06
9.363e-06
9.96e-06
1.064e-05
1.14e-05
1.227e-05
1.323e-05
1.431e-05
1.551e-05
1.684e-05
1.831e-05
1.995e-05
2.174e-05
2.372e-05
2.589e-05
2.825e-05
3.081e-05
3.356e-05
3.651e-05
3.962e-05
4.287e-05
4.621e-05
4.959e-05
5.293e-05
3.466e-06
6.306e-06
6.96e-06
7.203e-06
7.419e-06
7.679e-06
7.997e-06
8.376e-06
8.822e-06
9.338e-06
9.929e-06
1.06e-05
1.136e-05
1.221e-05
1.316e-05
1.422e-05
1.54e-05
1.67e-05
1.815e-05
1.975e-05
2.15e-05
2.343e-05
2.553e-05
2.782e-05
3.03e-05
3.296e-05
3.579e-05
3.878e-05
4.189e-05
4.509e-05
4.831e-05
5.15e-05
3.205e-06
5.834e-06
6.449e-06
6.69e-06
6.915e-06
7.186e-06
7.519e-06
7.919e-06
8.39e-06
8.937e-06
9.566e-06
1.028e-05
1.11e-05
1.202e-05
1.306e-05
1.423e-05
1.554e-05
1.7e-05
1.864e-05
2.047e-05
2.251e-05
2.477e-05
2.728e-05
3.006e-05
3.31e-05
3.643e-05
4.003e-05
4.389e-05
4.797e-05
5.222e-05
5.656e-05
6.09e-05
3.204e-06
5.832e-06
6.446e-06
6.688e-06
6.912e-06
7.183e-06
7.515e-06
7.913e-06
8.383e-06
8.928e-06
9.555e-06
1.027e-05
1.108e-05
1.2e-05
1.303e-05
1.419e-05
1.549e-05
1.695e-05
1.857e-05
2.039e-05
2.241e-05
2.465e-05
2.713e-05
2.987e-05
3.288e-05
3.616e-05
3.971e-05
4.351e-05
4.752e-05
5.17e-05
5.597e-05
6.023e-05
3.202e-06
5.829e-06
6.442e-06
6.683e-06
6.906e-06
7.175e-06
7.506e-06
7.902e-06
8.368e-06
8.91e-06
9.532e-06
1.024e-05
1.105e-05
1.195e-05
1.298e-05
1.412e-05
1.541e-05
1.684e-05
1.844e-05
2.023e-05
2.221e-05
2.441e-05
2.684e-05
2.952e-05
3.245e-05
3.565e-05
3.909e-05
4.278e-05
4.666e-05
5.07e-05
5.482e-05
5.893e-05
3.2e-06
5.824e-06
6.436e-06
6.676e-06
6.897e-06
7.165e-06
7.493e-06
7.885e-06
8.348e-06
8.884e-06
9.499e-06
1.02e-05
1.099e-05
1.189e-05
1.29e-05
1.402e-05
1.528e-05
1.669e-05
1.826e-05
2e-05
2.193e-05
2.407e-05
2.642e-05
2.901e-05
3.184e-05
3.49e-05
3.821e-05
4.173e-05
4.544e-05
4.928e-05
5.318e-05
5.708e-05
2.935e-06
5.346e-06
5.919e-06
6.157e-06
6.386e-06
6.665e-06
7.009e-06
7.421e-06
7.909e-06
8.477e-06
9.132e-06
9.883e-06
1.074e-05
1.171e-05
1.281e-05
1.405e-05
1.546e-05
1.704e-05
1.882e-05
2.083e-05
2.308e-05
2.562e-05
2.845e-05
3.162e-05
3.515e-05
3.904e-05
4.332e-05
4.796e-05
5.293e-05
5.817e-05
6.358e-05
6.903e-05
2.934e-06
5.345e-06
5.917e-06
6.154e-06
6.383e-06
6.661e-06
7.004e-06
7.415e-06
7.901e-06
8.467e-06
9.12e-06
9.867e-06
1.072e-05
1.168e-05
1.278e-05
1.401e-05
1.541e-05
1.698e-05
1.874e-05
2.073e-05
2.297e-05
2.547e-05
2.828e-05
3.14e-05
3.488e-05
3.872e-05
4.292e-05
4.748e-05
5.236e-05
5.749e-05
6.279e-05
6.813e-05
2.933e-06
5.341e-06
5.913e-06
6.15e-06
6.377e-06
6.654e-06
6.994e-06
7.403e-06
7.886e-06
8.448e-06
9.096e-06
9.837e-06
1.068e-05
1.164e-05
1.272e-05
1.394e-05
1.531e-05
1.686e-05
1.86e-05
2.055e-05
2.274e-05
2.519e-05
2.793e-05
3.098e-05
3.436e-05
3.808e-05
4.215e-05
4.656e-05
5.126e-05
5.621e-05
6.13e-05
6.642e-05
2.93e-06
5.337e-06
5.907e-06
6.142e-06
6.368e-06
6.643e-06
6.981e-06
7.386e-06
7.864e-06
8.42e-06
9.06e-06
9.792e-06
1.062e-05
1.157e-05
1.263e-05
1.383e-05
1.517e-05
1.669e-05
1.838e-05
2.028e-05
2.241e-05
2.479e-05
2.743e-05
3.037e-05
3.361e-05
3.717e-05
4.106e-05
4.524e-05
4.97e-05
5.437e-05
5.917e-05
6.399e-05
2.664e-06
4.856e-06
5.386e-06
5.62e-06
5.853e-06
6.14e-06
6.493e-06
6.919e-06
7.423e-06
8.011e-06
8.692e-06
9.475e-06
1.037e-05
1.139e-05
1.256e-05
1.388e-05
1.538e-05
1.709e-05
1.903e-05
2.123e-05
2.373e-05
2.657e-05
2.979e-05
3.343e-05
3.753e-05
4.213e-05
4.724e-05
5.288e-05
5.901e-05
6.556e-05
7.241e-05
7.938e-05
2.663e-06
4.854e-06
5.384e-06
5.618e-06
5.85e-06
6.136e-06
6.488e-06
6.912e-06
7.414e-06
8.001e-06
8.679e-06
9.458e-06
1.035e-05
1.137e-05
1.252e-05
1.384e-05
1.533e-05
1.702e-05
1.894e-05
2.112e-05
2.36e-05
2.64e-05
2.958e-05
3.316e-05
3.72e-05
4.172e-05
4.674e-05
5.227e-05
5.828e-05
6.468e-05
7.138e-05
7.818e-05
2.661e-06
4.851e-06
5.38e-06
5.613e-06
5.844e-06
6.128e-06
6.478e-06
6.9e-06
7.399e-06
7.98e-06
8.653e-06
9.425e-06
1.031e-05
1.131e-05
1.246e-05
1.375e-05
1.522e-05
1.689e-05
1.877e-05
2.091e-05
2.333e-05
2.607e-05
2.916e-05
3.265e-05
3.657e-05
4.094e-05
4.578e-05
5.11e-05
5.687e-05
6.3e-05
6.94e-05
7.589e-05
2.659e-06
4.846e-06
5.374e-06
5.606e-06
5.835e-06
6.117e-06
6.464e-06
6.882e-06
7.375e-06
7.951e-06
8.615e-06
9.377e-06
1.025e-05
1.124e-05
1.236e-05
1.363e-05
1.507e-05
1.669e-05
1.853e-05
2.061e-05
2.295e-05
2.56e-05
2.857e-05
3.192e-05
3.566e-05
3.982e-05
4.442e-05
4.944e-05
5.487e-05
6.062e-05
6.66e-05
7.266e-05
2.393e-06
4.367e-06
4.854e-06
5.084e-06
5.321e-06
5.615e-06
5.977e-06
6.415e-06
6.934e-06
7.543e-06
8.249e-06
9.064e-06
1e-05
1.107e-05
1.23e-05
1.371e-05
1.532e-05
1.716e-05
1.927e-05
2.168e-05
2.446e-05
2.764e-05
3.13e-05
3.549e-05
4.029e-05
4.576e-05
5.194e-05
5.887e-05
6.654e-05
7.486e-05
8.369e-05
9.278e-05
2.393e-06
4.365e-06
4.852e-06
5.082e-06
5.318e-06
5.611e-06
5.972e-06
6.408e-06
6.926e-06
7.532e-06
8.235e-06
9.046e-06
9.977e-06
1.104e-05
1.227e-05
1.366e-05
1.526e-05
1.708e-05
1.917e-05
2.156e-05
2.43e-05
2.744e-05
3.105e-05
3.517e-05
3.989e-05
4.525e-05
5.131e-05
5.809e-05
6.558e-05
7.37e-05
8.23e-05
9.115e-05
2.391e-06
4.362e-06
4.849e-06
5.077e-06
5.312e-06
5.603e-06
5.962e-06
6.395e-06
6.909e-06
7.51e-06
8.207e-06
9.01e-06
9.932e-06
1.099e-05
1.219e-05
1.357e-05
1.514e-05
1.693e-05
1.898e-05
2.132e-05
2.399e-05
2.706e-05
3.056e-05
3.456e-05
3.912e-05
4.428e-05
5.01e-05
5.66e-05
6.375e-05
7.148e-05
7.965e-05
8.804e-05
2.389e-06
4.358e-06
4.843e-06
5.07e-06
5.303e-06
5.592e-06
5.948e-06
6.377e-06
6.885e-06
7.479e-06
8.167e-06
8.959e-06
9.866e-06
1.09e-05
1.208e-05
1.343e-05
1.496e-05
1.671e-05
1.87e-05
2.097e-05
2.355e-05
2.65e-05
2.986e-05
3.368e-05
3.801e-05
4.29e-05
4.839e-05
5.448e-05
6.116e-05
6.835e-05
7.592e-05
8.367e-05
2.126e-06
3.883e-06
4.328e-06
4.554e-06
4.794e-06
5.094e-06
5.465e-06
5.914e-06
6.448e-06
7.076e-06
7.806e-06
8.653e-06
9.63e-06
1.076e-05
1.205e-05
1.354e-05
1.526e-05
1.724e-05
1.953e-05
2.218e-05
2.526e-05
2.884e-05
3.3e-05
3.785e-05
4.349e-05
5.003e-05
5.757e-05
6.619e-05
7.591e-05
8.668e-05
9.83e-05
0.0001104
2.125e-06
3.881e-06
4.326e-06
4.551e-06
4.791e-06
5.09e-06
5.46e-06
5.907e-06
6.439e-06
7.064e-06
7.791e-06
8.633e-06
9.605e-06
1.072e-05
1.201e-05
1.349e-05
1.519e-05
1.715e-05
1.942e-05
2.204e-05
2.508e-05
2.86e-05
3.27e-05
3.747e-05
4.3e-05
4.94e-05
5.677e-05
6.518e-05
7.465e-05
8.512e-05
9.64e-05
0.0001082
2.123e-06
3.878e-06
4.323e-06
4.547e-06
4.785e-06
5.082e-06
5.45e-06
5.894e-06
6.422e-06
7.041e-06
7.762e-06
8.596e-06
9.556e-06
1.066e-05
1.193e-05
1.338e-05
1.506e-05
1.698e-05
1.92e-05
2.176e-05
2.472e-05
2.815e-05
3.213e-05
3.673e-05
4.206e-05
4.82e-05
5.525e-05
6.326e-05
7.224e-05
8.215e-05
9.278e-05
0.0001039
2.121e-06
3.874e-06
4.318e-06
4.54e-06
4.776e-06
5.071e-06
5.435e-06
5.874e-06
6.396e-06
7.008e-06
7.719e-06
8.54e-06
9.485e-06
1.057e-05
1.181e-05
1.323e-05
1.487e-05
1.674e-05
1.889e-05
2.136e-05
2.422e-05
2.75e-05
3.13e-05
3.567e-05
4.071e-05
4.649e-05
5.309e-05
6.055e-05
6.887e-05
7.799e-05
8.774e-05
9.785e-05
1.863e-06
3.408e-06
3.812e-06
4.033e-06
4.276e-06
4.582e-06
4.961e-06
5.421e-06
5.969e-06
6.614e-06
7.368e-06
8.245e-06
9.262e-06
1.044e-05
1.18e-05
1.338e-05
1.521e-05
1.734e-05
1.982e-05
2.273e-05
2.614e-05
3.016e-05
3.491e-05
4.053e-05
4.718e-05
5.505e-05
6.433e-05
7.517e-05
8.769e-05
0.0001019
0.0001175
0.0001341
1.862e-06
3.407e-06
3.811e-06
4.031e-06
4.273e-06
4.578e-06
4.956e-06
5.414e-06
5.959e-06
6.602e-06
7.352e-06
8.225e-06
9.235e-06
1.04e-05
1.175e-05
1.332e-05
1.513e-05
1.724e-05
1.969e-05
2.256e-05
2.593e-05
2.989e-05
3.455e-05
4.006e-05
4.658e-05
5.427e-05
6.331e-05
7.386e-05
8.601e-05
9.975e-05
0.0001149
0.0001309
1.861e-06
3.404e-06
3.807e-06
4.026e-06
4.267e-06
4.57e-06
4.945e-06
5.4e-06
5.941e-06
6.578e-06
7.321e-06
8.184e-06
9.182e-06
1.034e-05
1.167e-05
1.321e-05
1.499e-05
1.705e-05
1.945e-05
2.225e-05
2.552e-05
2.936e-05
3.387e-05
3.918e-05
4.543e-05
5.277e-05
6.137e-05
7.136e-05
8.281e-05
9.571e-05
0.0001099
0.0001248
1.859e-06
3.4e-06
3.802e-06
4.02e-06
4.259e-06
4.559e-06
4.93e-06
5.38e-06
5.915e-06
6.543e-06
7.276e-06
8.125e-06
9.106e-06
1.024e-05
1.154e-05
1.304e-05
1.477e-05
1.678e-05
1.91e-05
2.18e-05
2.494e-05
2.86e-05
3.289e-05
3.791e-05
4.379e-05
5.066e-05
5.864e-05
6.786e-05
7.836e-05
9.01e-05
0.0001029
0.0001164
1.608e-06
2.947e-06
3.311e-06
3.527e-06
3.773e-06
4.084e-06
4.47e-06
4.939e-06
5.5e-06
6.163e-06
6.939e-06
7.845e-06
8.9e-06
1.013e-05
1.155e-05
1.322e-05
1.516e-05
1.745e-05
2.013e-05
2.331e-05
2.709e-05
3.16e-05
3.701e-05
4.353e-05
5.14e-05
6.092e-05
7.241e-05
8.62e-05
0.0001026
0.0001216
0.0001432
0.0001665
1.607e-06
2.946e-06
3.31e-06
3.525e-06
3.77e-06
4.08e-06
4.465e-06
4.932e-06
5.491e-06
6.15e-06
6.922e-06
7.823e-06
8.871e-06
1.009e-05
1.151e-05
1.316e-05
1.508e-05
1.734e-05
1.999e-05
2.313e-05
2.685e-05
3.128e-05
3.659e-05
4.297e-05
5.067e-05
5.994e-05
7.111e-05
8.448e-05
0.0001003
0.0001187
0.0001395
0.0001619
1.606e-06
2.944e-06
3.307e-06
3.521e-06
3.764e-06
4.072e-06
4.454e-06
4.918e-06
5.472e-06
6.125e-06
6.89e-06
7.78e-06
8.815e-06
1.002e-05
1.141e-05
1.303e-05
1.492e-05
1.713e-05
1.972e-05
2.277e-05
2.638e-05
3.067e-05
3.579e-05
4.191e-05
4.926e-05
5.808e-05
6.864e-05
8.121e-05
9.601e-05
0.0001131
0.0001324
0.0001531
1.605e-06
2.94e-06
3.302e-06
3.515e-06
3.756e-06
4.061e-06
4.439e-06
4.898e-06
5.445e-06
6.089e-06
6.842e-06
7.718e-06
8.734e-06
9.91e-06
1.127e-05
1.285e-05
1.469e-05
1.683e-05
1.933e-05
2.226e-05
2.571e-05
2.979e-05
3.464e-05
4.04e-05
4.727e-05
5.545e-05
6.518e-05
7.667e-05
9.008e-05
0.0001055
0.0001226
0.000141
1.363e-06
2.505e-06
2.831e-06
3.042e-06
3.289e-06
3.604e-06
3.997e-06
4.475e-06
5.048e-06
5.726e-06
6.523e-06
7.457e-06
8.549e-06
9.824e-06
1.132e-05
1.307e-05
1.513e-05
1.757e-05
2.046e-05
2.393e-05
2.809e-05
3.314e-05
3.93e-05
4.685e-05
5.617e-05
6.772e-05
8.204e-05
9.974e-05
0.0001214
0.0001475
0.000178
0.000212
1.363e-06
2.504e-06
2.829e-06
3.04e-06
3.286e-06
3.6e-06
3.992e-06
4.468e-06
5.038e-06
5.713e-06
6.506e-06
7.434e-06
8.518e-06
9.784e-06
1.126e-05
1.3e-05
1.504e-05
1.745e-05
2.031e-05
2.372e-05
2.782e-05
3.277e-05
3.881e-05
4.619e-05
5.527e-05
6.65e-05
8.037e-05
9.748e-05
0.0001184
0.0001435
0.0001727
0.0002052
1.362e-06
2.502e-06
2.826e-06
3.036e-06
3.281e-06
3.593e-06
3.981e-06
4.454e-06
5.019e-06
5.687e-06
6.472e-06
7.389e-06
8.459e-06
9.706e-06
1.116e-05
1.286e-05
1.486e-05
1.722e-05
2e-05
2.332e-05
2.729e-05
3.207e-05
3.786e-05
4.492e-05
5.356e-05
6.417e-05
7.721e-05
9.318e-05
0.0001126
0.0001357
0.0001625
0.0001921
1.36e-06
2.499e-06
2.822e-06
3.03e-06
3.273e-06
3.582e-06
3.966e-06
4.433e-06
4.991e-06
5.649e-06
6.422e-06
7.323e-06
8.372e-06
9.593e-06
1.101e-05
1.267e-05
1.461e-05
1.688e-05
1.957e-05
2.274e-05
2.653e-05
3.106e-05
3.652e-05
4.312e-05
5.115e-05
6.092e-05
7.282e-05
8.724e-05
0.0001046
0.000125
0.0001485
0.0001743
1.132e-06
2.086e-06
2.375e-06
2.581e-06
2.83e-06
3.149e-06
3.548e-06
4.034e-06
4.617e-06
5.309e-06
6.126e-06
7.085e-06
8.212e-06
9.534e-06
1.109e-05
1.292e-05
1.51e-05
1.769e-05
2.08e-05
2.456e-05
2.914e-05
3.476e-05
4.173e-05
5.046e-05
6.147e-05
7.548e-05
9.338e-05
0.0001163
0.0001454
0.0001818
0.0002261
0.0002771
1.131e-06
2.085e-06
2.374e-06
2.579e-06
2.828e-06
3.145e-06
3.542e-06
4.026e-06
4.607e-06
5.295e-06
6.107e-06
7.061e-06
8.179e-06
9.491e-06
1.103e-05
1.285e-05
1.5e-05
1.756e-05
2.063e-05
2.433e-05
2.883e-05
3.434e-05
4.116e-05
4.967e-05
6.038e-05
7.396e-05
9.125e-05
0.0001133
0.0001412
0.0001761
0.0002183
0.0002669
1.13e-06
2.084e-06
2.371e-06
2.575e-06
2.822e-06
3.138e-06
3.532e-06
4.012e-06
4.587e-06
5.269e-06
6.072e-06
7.013e-06
8.116e-06
9.408e-06
1.092e-05
1.271e-05
1.481e-05
1.731e-05
2.029e-05
2.388e-05
2.823e-05
3.353e-05
4.006e-05
4.816e-05
5.83e-05
7.107e-05
8.72e-05
0.0001076
0.0001333
0.000165
0.0002033
0.0002471
1.129e-06
2.081e-06
2.367e-06
2.57e-06
2.815e-06
3.127e-06
3.516e-06
3.99e-06
4.558e-06
5.23e-06
6.02e-06
6.944e-06
8.025e-06
9.287e-06
1.076e-05
1.25e-05
1.454e-05
1.695e-05
1.981e-05
2.324e-05
2.737e-05
3.238e-05
3.851e-05
4.605e-05
5.54e-05
6.705e-05
8.162e-05
9.983e-05
0.0001224
0.0001501
0.0001829
0.0002201
9.152e-07
1.695e-06
1.949e-06
2.151e-06
2.401e-06
2.724e-06
3.127e-06
3.62e-06
4.212e-06
4.917e-06
5.751e-06
6.735e-06
7.893e-06
9.259e-06
1.087e-05
1.279e-05
1.507e-05
1.782e-05
2.114e-05
2.519e-05
3.019e-05
3.641e-05
4.426e-05
5.427e-05
6.721e-05
8.414e-05
0.0001065
0.0001362
0.0001756
0.0002272
0.000293
0.0003721
9.148e-07
1.695e-06
1.948e-06
2.149e-06
2.399e-06
2.72e-06
3.122e-06
3.612e-06
4.202e-06
4.903e-06
5.732e-06
6.709e-06
7.859e-06
9.213e-06
1.081e-05
1.271e-05
1.497e-05
1.768e-05
2.095e-05
2.494e-05
2.984e-05
3.593e-05
4.359e-05
5.334e-05
6.59e-05
8.226e-05
0.0001038
0.0001322
0.0001699
0.0002191
0.0002815
0.0003566
9.141e-07
1.693e-06
1.946e-06
2.146e-06
2.394e-06
2.713e-06
3.111e-06
3.597e-06
4.181e-06
4.876e-06
5.695e-06
6.66e-06
7.793e-06
9.126e-06
1.07e-05
1.255e-05
1.476e-05
1.74e-05
2.058e-05
2.444e-05
2.917e-05
3.501e-05
4.233e-05
5.157e-05
6.34e-05
7.868e-05
9.862e-05
0.0001248
0.000159
0.0002033
0.0002592
0.0003259
9.131e-07
1.691e-06
1.943e-06
2.141e-06
2.386e-06
2.702e-06
3.096e-06
3.576e-06
4.152e-06
4.836e-06
5.641e-06
6.587e-06
7.697e-06
8.998e-06
1.053e-05
1.233e-05
1.447e-05
1.701e-05
2.006e-05
2.373e-05
2.821e-05
3.371e-05
4.054e-05
4.909e-05
5.992e-05
7.376e-05
9.157e-05
0.0001146
0.0001442
0.000182
0.0002289
0.0002842
7.167e-07
1.337e-06
1.559e-06
1.756e-06
2.008e-06
2.333e-06
2.74e-06
3.238e-06
3.839e-06
4.555e-06
5.405e-06
6.41e-06
7.597e-06
9.003e-06
1.067e-05
1.266e-05
1.505e-05
1.794e-05
2.146e-05
2.58e-05
3.121e-05
3.803e-05
4.676e-05
5.813e-05
7.318e-05
9.344e-05
0.0001212
0.0001596
0.000213
0.0002868
0.0003862
0.0005124
7.164e-07
1.336e-06
1.558e-06
1.754e-06
2.005e-06
2.329e-06
2.735e-06
3.231e-06
3.828e-06
4.541e-06
5.385e-06
6.383e-06
7.561e-06
8.955e-06
1.061e-05
1.258e-05
1.494e-05
1.779e-05
2.126e-05
2.552e-05
3.082e-05
3.749e-05
4.601e-05
5.706e-05
7.162e-05
9.115e-05
0.0001177
0.0001544
0.0002052
0.0002752
0.0003692
0.0004887
7.159e-07
1.335e-06
1.556e-06
1.751e-06
2e-06
2.322e-06
2.724e-06
3.216e-06
3.808e-06
4.513e-06
5.347e-06
6.332e-06
7.493e-06
8.863e-06
1.049e-05
1.241e-05
1.472e-05
1.749e-05
2.086e-05
2.498e-05
3.008e-05
3.646e-05
4.457e-05
5.501e-05
6.866e-05
8.68e-05
0.0001113
0.0001446
0.0001903
0.0002527
0.0003357
0.0004406
7.151e-07
1.333e-06
1.553e-06
1.747e-06
1.993e-06
2.311e-06
2.709e-06
3.194e-06
3.778e-06
4.472e-06
5.291e-06
6.257e-06
7.392e-06
8.729e-06
1.031e-05
1.218e-05
1.44e-05
1.707e-05
2.029e-05
2.421e-05
2.903e-05
3.501e-05
4.255e-05
5.215e-05
6.456e-05
8.082e-05
0.0001024
0.0001314
0.0001703
0.0002223
0.0002903
0.0003746
5.385e-07
1.015e-06
1.209e-06
1.401e-06
1.654e-06
1.981e-06
2.392e-06
2.895e-06
3.503e-06
4.229e-06
5.092e-06
6.115e-06
7.328e-06
8.77e-06
1.049e-05
1.255e-05
1.503e-05
1.805e-05
2.176e-05
2.636e-05
3.215e-05
3.953e-05
4.913e-05
6.183e-05
7.904e-05
0.0001029
0.0001367
0.0001857
0.0002575
0.0003627
0.0005135
0.0007184
5.383e-07
1.014e-06
1.208e-06
1.4e-06
1.651e-06
1.977e-06
2.386e-06
2.887e-06
3.492e-06
4.214e-06
5.071e-06
6.088e-06
7.291e-06
8.72e-06
1.042e-05
1.246e-05
1.491e-05
1.789e-05
2.154e-05
2.605e-05
3.172e-05
3.894e-05
4.828e-05
6.061e-05
7.722e-05
0.0001001
0.0001325
0.0001791
0.0002471
0.0003464
0.0004888
0.0006825
5.38e-07
1.013e-06
1.206e-06
1.397e-06
1.647e-06
1.97e-06
2.376e-06
2.872e-06
3.471e-06
4.185e-06
5.032e-06
6.034e-06
7.22e-06
8.624e-06
1.029e-05
1.228e-05
1.468e-05
1.757e-05
2.111e-05
2.547e-05
3.092e-05
3.781e-05
4.667e-05
5.828e-05
7.378e-05
9.494e-05
0.0001245
0.0001665
0.000227
0.0003145
0.0004388
0.0006068
5.374e-07
1.012e-06
1.203e-06
1.393e-06
1.64e-06
1.96e-06
2.361e-06
2.851e-06
3.44e-06
4.143e-06
4.975e-06
5.957e-06
7.116e-06
8.484e-06
1.011e-05
1.203e-05
1.434e-05
1.712e-05
2.05e-05
2.464e-05
2.977e-05
3.621e-05
4.442e-05
5.504e-05
6.904e-05
8.784e-05
0.0001136
0.0001495
0.0002001
0.0002715
0.0003705
0.0005014
3.829e-07
7.334e-07
9.024e-07
1.092e-06
1.344e-06
1.673e-06
2.087e-06
2.594e-06
3.207e-06
3.941e-06
4.816e-06
5.855e-06
7.09e-06
8.562e-06
1.032e-05
1.244e-05
1.501e-05
1.814e-05
2.201e-05
2.684e-05
3.295e-05
4.083e-05
5.117e-05
6.506e-05
8.424e-05
0.0001115
0.0001517
0.0002124
0.0003065
0.0004531
0.0006794
0.001013
3.828e-07
7.331e-07
9.016e-07
1.09e-06
1.342e-06
1.67e-06
2.081e-06
2.586e-06
3.196e-06
3.926e-06
4.795e-06
5.827e-06
7.052e-06
8.511e-06
1.025e-05
1.235e-05
1.488e-05
1.797e-05
2.177e-05
2.651e-05
3.25e-05
4.019e-05
5.025e-05
6.37e-05
8.218e-05
0.0001083
0.0001466
0.0002042
0.0002929
0.000431
0.0006441
0.0009596
3.826e-07
7.324e-07
9.002e-07
1.088e-06
1.338e-06
1.663e-06
2.071e-06
2.571e-06
3.175e-06
3.897e-06
4.755e-06
5.772e-06
6.978e-06
8.411e-06
1.012e-05
1.217e-05
1.464e-05
1.764e-05
2.132e-05
2.589e-05
3.164e-05
3.897e-05
4.849e-05
6.112e-05
7.829e-05
0.0001023
0.000137
0.0001884
0.0002666
0.000387
0.000571
0.0008422
3.822e-07
7.314e-07
8.981e-07
1.084e-06
1.331e-06
1.653e-06
2.056e-06
2.549e-06
3.144e-06
3.854e-06
4.696e-06
5.693e-06
6.871e-06
8.267e-06
9.926e-06
1.191e-05
1.428e-05
1.716e-05
2.067e-05
2.501e-05
3.041e-05
3.725e-05
4.604e-05
5.755e-05
7.296e-05
9.413e-05
0.000124
0.0001673
0.0002314
0.0003274
0.0004702
0.0006744
2.519e-07
4.965e-07
6.444e-07
8.304e-07
1.083e-06
1.413e-06
1.829e-06
2.339e-06
2.956e-06
3.697e-06
4.58e-06
5.632e-06
6.885e-06
8.382e-06
1.018e-05
1.234e-05
1.497e-05
1.82e-05
2.219e-05
2.72e-05
3.357e-05
4.182e-05
5.27e-05
6.745e-05
8.805e-05
0.000118
0.0001633
0.0002348
0.0003518
0.0005469
0.0008748
0.001412
2.518e-07
4.964e-07
6.438e-07
8.292e-07
1.081e-06
1.41e-06
1.823e-06
2.331e-06
2.945e-06
3.681e-06
4.559e-06
5.603e-06
6.846e-06
8.329e-06
1.011e-05
1.225e-05
1.484e-05
1.802e-05
2.195e-05
2.686e-05
3.31e-05
4.114e-05
5.172e-05
6.599e-05
8.582e-05
0.0001144
0.0001575
0.0002251
0.0003351
0.0005182
0.0008264
0.001335
2.517e-07
4.959e-07
6.426e-07
8.268e-07
1.077e-06
1.403e-06
1.813e-06
2.316e-06
2.924e-06
3.652e-06
4.518e-06
5.547e-06
6.77e-06
8.226e-06
9.967e-06
1.206e-05
1.459e-05
1.768e-05
2.148e-05
2.621e-05
3.219e-05
3.985e-05
4.985e-05
6.322e-05
8.16e-05
0.0001078
0.0001465
0.0002064
0.0003024
0.0004603
0.0007238
0.001157
2.516e-07
4.953e-07
6.409e-07
8.232e-07
1.071e-06
1.393e-06
1.798e-06
2.294e-06
2.893e-06
3.608e-06
4.458e-06
5.466e-06
6.66e-06
8.078e-06
9.767e-06
1.179e-05
1.422e-05
1.718e-05
2.08e-05
2.528e-05
3.09e-05
3.803e-05
4.725e-05
5.94e-05
7.583e-05
9.874e-05
0.0001318
0.0001815
0.0002589
0.0003821
0.0005808
0.0008955
1.472e-07
3.071e-07
4.38e-07
6.209e-07
8.731e-07
1.203e-06
1.619e-06
2.13e-06
2.75e-06
3.493e-06
4.381e-06
5.44e-06
6.704e-06
8.216e-06
1.003e-05
1.223e-05
1.49e-05
1.819e-05
2.227e-05
2.739e-05
3.391e-05
4.234e-05
5.347e-05
6.852e-05
8.956e-05
0.0001202
0.0001674
0.0002444
0.0003768
0.000615
0.001061
0.001895
1.472e-07
3.07e-07
4.374e-07
6.197e-07
8.71e-07
1.2e-06
1.614e-06
2.122e-06
2.738e-06
3.477e-06
4.359e-06
5.411e-06
6.664e-06
8.162e-06
9.959e-06
1.213e-05
1.477e-05
1.801e-05
2.201e-05
2.704e-05
3.342e-05
4.164e-05
5.246e-05
6.703e-05
8.727e-05
0.0001166
0.0001614
0.0002339
0.0003578
0.0005803
0.0009986
0.001789
1.472e-07
3.068e-07
4.364e-07
6.175e-07
8.669e-07
1.193e-06
1.603e-06
2.107e-06
2.717e-06
3.447e-06
4.318e-06
5.354e-06
6.587e-06
8.057e-06
9.818e-06
1.194e-05
1.451e-05
1.765e-05
2.153e-05
2.637e-05
3.248e-05
4.031e-05
5.054e-05
6.419e-05
8.295e-05
0.0001097
0.0001499
0.0002137
0.0003208
0.0005103
0.0008631
0.001532
1.472e-07
3.064e-07
4.35e-07
6.142e-07
8.61e-07
1.183e-06
1.589e-06
2.086e-06
2.686e-06
3.404e-06
4.258e-06
5.271e-06
6.475e-06
7.906e-06
9.614e-06
1.166e-05
1.414e-05
1.714e-05
2.084e-05
2.541e-05
3.115e-05
3.845e-05
4.787e-05
6.028e-05
7.704e-05
0.0001004
0.0001346
0.000187
0.0002719
0.0004164
0.0006742
0.001142
7.022e-08
1.67e-07
2.839e-07
4.622e-07
7.106e-07
1.036e-06
1.447e-06
1.952e-06
2.564e-06
3.299e-06
4.178e-06
5.227e-06
6.481e-06
7.982e-06
9.789e-06
1.198e-05
1.464e-05
1.792e-05
2.199e-05
2.709e-05
3.357e-05
4.192e-05
5.284e-05
6.741e-05
8.739e-05
0.0001159
0.0001589
0.0002292
0.0003546
0.0006009
0.001134
0.002305
7.026e-08
1.67e-07
2.834e-07
4.61e-07
7.086e-07
1.033e-06
1.441e-06
1.944e-06
2.553e-06
3.283e-06
4.157e-06
5.198e-06
6.441e-06
7.928e-06
9.716e-06
1.188e-05
1.451e-05
1.773e-05
2.173e-05
2.674e-05
3.308e-05
4.123e-05
5.185e-05
6.597e-05
8.522e-05
0.0001125
0.0001533
0.0002194
0.0003361
0.0005644
0.001061
0.002173
7.034e-08
1.669e-07
2.826e-07
4.59e-07
7.047e-07
1.026e-06
1.431e-06
1.929e-06
2.531e-06
3.254e-06
4.115e-06
5.142e-06
6.364e-06
7.824e-06
9.574e-06
1.168e-05
1.425e-05
1.738e-05
2.125e-05
2.607e-05
3.215e-05
3.992e-05
4.997e-05
6.324e-05
8.113e-05
0.0001061
0.0001428
0.0002008
0.0003008
0.0004917
0.000903
0.001839
7.045e-08
1.667e-07
2.814e-07
4.56e-07
6.99e-07
1.017e-06
1.417e-06
1.908e-06
2.5e-06
3.21e-06
4.055e-06
5.059e-06
6.252e-06
7.673e-06
9.37e-06
1.141e-05
1.387e-05
1.687e-05
2.055e-05
2.511e-05
3.083e-05
3.806e-05
4.735e-05
5.945e-05
7.552e-05
9.749e-05
0.0001288
0.0001765
0.000255
0.000397
0.0006866
0.001316
2.268e-08
7.749e-08
1.78e-07
3.401e-07
5.675e-07
8.657e-07
1.242e-06
1.704e-06
2.265e-06
2.94e-06
3.746e-06
4.709e-06
5.86e-06
7.239e-06
8.898e-06
1.091e-05
1.336e-05
1.637e-05
2.01e-05
2.477e-05
3.067e-05
3.822e-05
4.795e-05
6.062e-05
7.727e-05
9.948e-05
0.0001301
0.0001753
0.000251
0.0004071
0.0008548
0.002327
2.28e-08
7.762e-08
1.777e-07
3.392e-07
5.657e-07
8.627e-07
1.237e-06
1.697e-06
2.255e-06
2.926e-06
3.726e-06
4.682e-06
5.823e-06
7.189e-06
8.831e-06
1.082e-05
1.323e-05
1.62e-05
1.986e-05
2.445e-05
3.023e-05
3.76e-05
4.708e-05
5.938e-05
7.55e-05
9.688e-05
0.0001261
0.0001688
0.0002389
0.0003813
0.0007943
0.002191
2.294e-08
7.763e-08
1.771e-07
3.375e-07
5.623e-07
8.569e-07
1.228e-06
1.684e-06
2.236e-06
2.898e-06
3.689e-06
4.63e-06
5.752e-06
7.093e-06
8.701e-06
1.064e-05
1.299e-05
1.587e-05
1.942e-05
2.383e-05
2.938e-05
3.642e-05
4.542e-05
5.703e-05
7.213e-05
9.198e-05
0.0001187
0.0001569
0.0002172
0.0003339
0.0006634
0.001812
2.311e-08
7.758e-08
1.761e-07
3.348e-07
5.572e-07
8.483e-07
1.215e-06
1.664e-06
2.208e-06
2.858e-06
3.634e-06
4.555e-06
5.65e-06
6.954e-06
8.513e-06
1.038e-05
1.265e-05
1.54e-05
1.878e-05
2.296e-05
2.818e-05
3.475e-05
4.308e-05
5.375e-05
6.748e-05
8.53e-05
0.0001088
0.0001413
0.00019
0.0002764
0.0004942
0.001197
2.974e-09
2.49e-08
7.847e-08
1.672e-07
2.922e-07
4.563e-07
6.632e-07
9.178e-07
1.227e-06
1.598e-06
2.041e-06
2.571e-06
3.204e-06
3.962e-06
4.874e-06
5.977e-06
7.319e-06
8.967e-06
1.1e-05
1.354e-05
1.674e-05
2.078e-05
2.589e-05
3.235e-05
4.033e-05
4.973e-05
5.966e-05
6.848e-05
7.31e-05
6.321e-05
0.0001298
0.002202
3.043e-09
2.496e-08
7.828e-08
1.667e-07
2.912e-07
4.546e-07
6.606e-07
9.14e-07
1.221e-06
1.59e-06
2.031e-06
2.556e-06
3.184e-06
3.935e-06
4.837e-06
5.927e-06
7.252e-06
8.874e-06
1.088e-05
1.337e-05
1.65e-05
2.045e-05
2.545e-05
3.174e-05
3.952e-05
4.87e-05
5.849e-05
6.732e-05
7.179e-05
6.208e-05
0.0001226
0.002073
3.133e-09
2.498e-08
7.793e-08
1.657e-07
2.893e-07
4.514e-07
6.556e-07
9.066e-07
1.21e-06
1.575e-06
2.01e-06
2.528e-06
3.145e-06
3.882e-06
4.766e-06
5.83e-06
7.121e-06
8.697e-06
1.064e-05
1.304e-05
1.605e-05
1.982e-05
2.458e-05
3.056e-05
3.795e-05
4.671e-05
5.62e-05
6.498e-05
6.995e-05
6.224e-05
0.0001057
0.001654
3.248e-09
2.497e-08
7.741e-08
1.643e-07
2.865e-07
4.468e-07
6.483e-07
8.958e-07
1.195e-06
1.553e-06
1.98e-06
2.486e-06
3.089e-06
3.806e-06
4.662e-06
5.691e-06
6.932e-06
8.441e-06
1.029e-05
1.257e-05
1.54e-05
1.894e-05
2.337e-05
2.891e-05
3.575e-05
4.392e-05
5.301e-05
6.193e-05
6.847e-05
6.68e-05
9.11e-05
0.000868
1.094e-05
1.165e-05
1.245e-05
1.333e-05
1.431e-05
1.539e-05
1.658e-05
1.788e-05
1.931e-05
2.086e-05
2.255e-05
2.437e-05
2.633e-05
2.843e-05
3.066e-05
3.3e-05
3.544e-05
3.796e-05
4.051e-05
4.307e-05
4.557e-05
1.027e-05
1.089e-05
1.159e-05
1.237e-05
1.323e-05
1.419e-05
1.524e-05
1.64e-05
1.766e-05
1.905e-05
2.055e-05
2.217e-05
2.392e-05
2.58e-05
2.78e-05
2.992e-05
3.214e-05
3.445e-05
3.682e-05
3.922e-05
4.161e-05
4.395e-05
9.678e-06
1.022e-05
1.083e-05
1.152e-05
1.228e-05
1.312e-05
1.405e-05
1.508e-05
1.62e-05
1.742e-05
1.875e-05
2.02e-05
2.175e-05
2.342e-05
2.521e-05
2.711e-05
2.911e-05
3.12e-05
3.336e-05
3.557e-05
3.78e-05
4.002e-05
4.219e-05
9.167e-06
9.635e-06
1.017e-05
1.077e-05
1.144e-05
1.218e-05
1.3e-05
1.391e-05
1.49e-05
1.598e-05
1.716e-05
1.844e-05
1.982e-05
2.13e-05
2.289e-05
2.458e-05
2.637e-05
2.824e-05
3.019e-05
3.22e-05
3.425e-05
3.632e-05
3.836e-05
4.034e-05
9.131e-06
9.59e-06
1.011e-05
1.07e-05
1.135e-05
1.208e-05
1.288e-05
1.376e-05
1.472e-05
1.576e-05
1.689e-05
1.812e-05
1.943e-05
2.084e-05
2.234e-05
2.393e-05
2.561e-05
2.736e-05
2.917e-05
3.103e-05
3.292e-05
3.481e-05
3.667e-05
3.848e-05
8.7e-06
9.094e-06
9.545e-06
1.006e-05
1.063e-05
1.127e-05
1.197e-05
1.275e-05
1.36e-05
1.453e-05
1.553e-05
1.662e-05
1.779e-05
1.904e-05
2.038e-05
2.179e-05
2.329e-05
2.485e-05
2.648e-05
2.816e-05
2.987e-05
3.16e-05
3.332e-05
3.502e-05
3.666e-05
8.338e-06
8.67e-06
9.057e-06
9.499e-06
1e-05
1.056e-05
1.118e-05
1.187e-05
1.263e-05
1.345e-05
1.434e-05
1.531e-05
1.635e-05
1.747e-05
1.866e-05
1.992e-05
2.126e-05
2.266e-05
2.412e-05
2.563e-05
2.718e-05
2.875e-05
3.033e-05
3.191e-05
3.344e-05
3.492e-05
8.039e-06
8.314e-06
8.641e-06
9.021e-06
9.455e-06
9.946e-06
1.049e-05
1.11e-05
1.177e-05
1.251e-05
1.33e-05
1.417e-05
1.51e-05
1.61e-05
1.717e-05
1.83e-05
1.95e-05
2.075e-05
2.207e-05
2.343e-05
2.483e-05
2.626e-05
2.771e-05
2.916e-05
3.059e-05
3.198e-05
3.331e-05
7.795e-06
8.02e-06
8.292e-06
8.614e-06
8.987e-06
9.414e-06
9.895e-06
1.043e-05
1.103e-05
1.168e-05
1.239e-05
1.317e-05
1.4e-05
1.49e-05
1.586e-05
1.688e-05
1.796e-05
1.91e-05
2.029e-05
2.152e-05
2.28e-05
2.411e-05
2.543e-05
2.676e-05
2.809e-05
2.939e-05
3.066e-05
3.186e-05
7.59e-06
7.779e-06
8.001e-06
8.27e-06
8.587e-06
8.955e-06
9.375e-06
9.848e-06
1.037e-05
1.096e-05
1.159e-05
1.229e-05
1.304e-05
1.385e-05
1.472e-05
1.565e-05
1.663e-05
1.766e-05
1.875e-05
1.987e-05
2.104e-05
2.224e-05
2.346e-05
2.469e-05
2.593e-05
2.715e-05
2.834e-05
2.95e-05
3.059e-05
7.342e-06
7.57e-06
7.757e-06
7.976e-06
8.241e-06
8.555e-06
8.917e-06
9.331e-06
9.796e-06
1.031e-05
1.088e-05
1.151e-05
1.219e-05
1.292e-05
1.371e-05
1.455e-05
1.545e-05
1.639e-05
1.739e-05
1.842e-05
1.95e-05
2.061e-05
2.174e-05
2.289e-05
2.404e-05
2.519e-05
2.633e-05
2.743e-05
2.849e-05
2.949e-05
6.624e-06
7.289e-06
7.513e-06
7.697e-06
7.914e-06
8.174e-06
8.482e-06
8.839e-06
9.245e-06
9.701e-06
1.021e-05
1.077e-05
1.138e-05
1.204e-05
1.276e-05
1.352e-05
1.434e-05
1.52e-05
1.612e-05
1.707e-05
1.807e-05
1.909e-05
2.015e-05
2.122e-05
2.231e-05
2.34e-05
2.448e-05
2.553e-05
2.656e-05
2.754e-05
2.847e-05
3.577e-06
6.444e-06
7.075e-06
7.288e-06
7.465e-06
7.673e-06
7.924e-06
8.221e-06
8.564e-06
8.955e-06
9.393e-06
9.88e-06
1.042e-05
1.1e-05
1.164e-05
1.232e-05
1.305e-05
1.383e-05
1.465e-05
1.552e-05
1.642e-05
1.736e-05
1.833e-05
1.932e-05
2.033e-05
2.134e-05
2.236e-05
2.336e-05
2.434e-05
2.529e-05
2.619e-05
2.704e-05
3.248e-06
5.705e-06
6.219e-06
6.395e-06
6.547e-06
6.728e-06
6.947e-06
7.206e-06
7.505e-06
7.846e-06
8.228e-06
8.652e-06
9.118e-06
9.627e-06
1.018e-05
1.077e-05
1.141e-05
1.208e-05
1.279e-05
1.354e-05
1.432e-05
1.513e-05
1.596e-05
1.682e-05
1.768e-05
1.855e-05
1.942e-05
2.027e-05
2.111e-05
2.191e-05
2.268e-05
2.34e-05
2.05e-06
3.316e-06
3.548e-06
3.634e-06
3.717e-06
3.819e-06
3.943e-06
4.089e-06
4.258e-06
4.45e-06
4.666e-06
4.905e-06
5.168e-06
5.455e-06
5.765e-06
6.1e-06
6.457e-06
6.836e-06
7.237e-06
7.658e-06
8.096e-06
8.551e-06
9.019e-06
9.497e-06
9.981e-06
1.047e-05
1.095e-05
1.143e-05
1.19e-05
1.235e-05
1.277e-05
1.318e-05
3.463e-06
6.299e-06
6.952e-06
7.194e-06
7.408e-06
7.666e-06
7.98e-06
8.356e-06
8.797e-06
9.307e-06
9.89e-06
1.055e-05
1.13e-05
1.213e-05
1.307e-05
1.411e-05
1.526e-05
1.653e-05
1.794e-05
1.949e-05
2.119e-05
2.305e-05
2.508e-05
2.728e-05
2.965e-05
3.219e-05
3.489e-05
3.773e-05
4.067e-05
4.369e-05
4.672e-05
4.972e-05
3.458e-06
6.291e-06
6.942e-06
7.183e-06
7.395e-06
7.65e-06
7.961e-06
8.332e-06
8.767e-06
9.27e-06
9.844e-06
1.049e-05
1.123e-05
1.204e-05
1.296e-05
1.397e-05
1.509e-05
1.633e-05
1.77e-05
1.919e-05
2.083e-05
2.261e-05
2.455e-05