/*--------------------------------*- C++ -*----------------------------------*\
  =========                 |
  \\      /  F ield         | OpenFOAM: The Open Source CFD Toolbox
   \\    /   O peration     | Website:  https://openfoam.org
    \\  /    A nd           | Version:  6
     \\/     M anipulation  |
\*---------------------------------------------------------------------------*/
FoamFile
{
    version     2.0;
    format      ascii;
    class       volScalarField;
    location    "15";
    object      T;
}
// * * * * * * * * * * * * * * * * * * * * * * * * * * * * * * * * * * * * * //

dimensions      [0 0 0 1 0 0 0];

internalField   nonuniform List<scalar> 
16128
(
2.364
2.233
2.104
1.977
1.854
1.735
1.622
1.514
1.412
1.316
1.228
1.146
1.072
1.005
0.9448
0.8914
0.8446
2.501
2.371
2.241
2.112
1.986
1.863
1.745
1.631
1.523
1.421
1.326
1.238
1.156
1.082
1.015
0.9546
0.9012
0.8542
2.642
2.514
2.385
2.256
2.128
2.003
1.88
1.763
1.65
1.542
1.441
1.346
1.258
1.176
1.102
1.035
0.9744
0.9207
0.8736
2.785
2.66
2.533
2.405
2.278
2.151
2.027
1.906
1.79
1.678
1.571
1.47
1.375
1.288
1.206
1.132
1.065
1.004
0.9502
0.9028
3.661
3.646
3.616
3.573
3.516
3.446
3.365
3.272
3.171
3.06
2.943
2.819
2.691
2.56
2.426
2.292
2.159
2.027
1.897
1.772
1.651
1.535
1.426
1.323
1.227
1.138
1.057
0.9828
0.9162
0.8568
0.8044
0.7587
3.663
3.647
3.618
3.574
3.517
3.448
3.367
3.275
3.174
3.064
2.947
2.824
2.697
2.566
2.433
2.299
2.166
2.035
1.906
1.781
1.66
1.545
1.436
1.333
1.237
1.148
1.067
0.9928
0.9261
0.8666
0.814
0.7682
3.665
3.65
3.62
3.577
3.521
3.453
3.372
3.282
3.181
3.072
2.956
2.835
2.708
2.578
2.446
2.314
2.182
2.051
1.923
1.799
1.679
1.564
1.455
1.353
1.257
1.168
1.087
1.013
0.9459
0.8862
0.8334
0.7872
3.668
3.653
3.625
3.582
3.527
3.459
3.38
3.29
3.191
3.084
2.97
2.85
2.725
2.597
2.466
2.335
2.205
2.075
1.949
1.825
1.706
1.592
1.484
1.382
1.287
1.198
1.117
1.043
0.9758
0.9158
0.8626
0.816
3.63
3.614
3.583
3.538
3.48
3.408
3.324
3.229
3.124
3.011
2.89
2.763
2.631
2.496
2.36
2.222
2.085
1.951
1.819
1.691
1.568
1.451
1.34
1.236
1.14
1.051
0.9696
0.8962
0.8304
0.772
0.7207
0.6763
3.631
3.615
3.585
3.54
3.482
3.41
3.327
3.232
3.128
3.015
2.895
2.768
2.637
2.503
2.367
2.23
2.093
1.959
1.827
1.7
1.577
1.46
1.35
1.246
1.15
1.061
0.9797
0.9061
0.8402
0.7816
0.7302
0.6856
3.634
3.618
3.588
3.543
3.486
3.415
3.332
3.239
3.135
3.023
2.904
2.779
2.649
2.516
2.38
2.245
2.109
1.976
1.845
1.718
1.596
1.48
1.37
1.266
1.17
1.081
0.9998
0.9261
0.8599
0.801
0.7492
0.7042
3.637
3.622
3.592
3.548
3.491
3.422
3.34
3.248
3.146
3.035
2.918
2.794
2.666
2.534
2.401
2.267
2.133
2.001
1.871
1.746
1.625
1.509
1.399
1.296
1.2
1.111
1.03
0.9561
0.8896
0.8303
0.778
0.7325
3.6
3.583
3.552
3.506
3.445
3.371
3.285
3.187
3.08
2.963
2.839
2.708
2.573
2.435
2.294
2.154
2.014
1.876
1.742
1.612
1.487
1.368
1.256
1.152
1.055
0.9661
0.8854
0.8126
0.7478
0.6907
0.6409
0.598
3.601
3.585
3.553
3.507
3.447
3.374
3.288
3.191
3.083
2.967
2.843
2.714
2.579
2.441
2.302
2.161
2.022
1.885
1.751
1.621
1.497
1.378
1.266
1.162
1.065
0.9763
0.8954
0.8225
0.7575
0.7002
0.6501
0.607
3.604
3.588
3.557
3.511
3.451
3.378
3.293
3.197
3.091
2.976
2.853
2.724
2.591
2.454
2.316
2.177
2.038
1.902
1.769
1.64
1.516
1.398
1.286
1.182
1.085
0.9965
0.9155
0.8423
0.777
0.7192
0.6687
0.6251
3.607
3.592
3.561
3.516
3.457
3.385
3.302
3.207
3.102
2.988
2.867
2.741
2.609
2.474
2.337
2.2
2.063
1.928
1.796
1.668
1.545
1.427
1.317
1.213
1.116
1.027
0.9457
0.8722
0.8064
0.748
0.6969
0.6526
3.571
3.554
3.522
3.474
3.412
3.336
3.247
3.147
3.036
2.916
2.789
2.655
2.517
2.375
2.231
2.087
1.944
1.804
1.667
1.535
1.408
1.288
1.175
1.07
0.973
0.8844
0.8043
0.7325
0.669
0.6133
0.5652
0.5241
3.572
3.556
3.524
3.476
3.414
3.339
3.25
3.151
3.04
2.921
2.794
2.661
2.523
2.382
2.239
2.095
1.953
1.813
1.676
1.544
1.418
1.298
1.185
1.08
0.9833
0.8946
0.8143
0.7423
0.6785
0.6226
0.5742
0.5328
3.575
3.559
3.527
3.48
3.419
3.344
3.256
3.157
3.048
2.93
2.804
2.672
2.535
2.395
2.253
2.111
1.97
1.83
1.695
1.563
1.438
1.318
1.206
1.101
1.004
0.9148
0.8342
0.7619
0.6976
0.6412
0.5922
0.5502
3.579
3.563
3.531
3.485
3.425
3.351
3.265
3.167
3.06
2.943
2.819
2.689
2.554
2.415
2.275
2.134
1.994
1.857
1.722
1.592
1.467
1.348
1.236
1.131
1.034
0.9453
0.8644
0.7915
0.7266
0.6694
0.6196
0.5769
3.544
3.527
3.494
3.445
3.381
3.303
3.212
3.109
2.995
2.872
2.741
2.604
2.462
2.317
2.17
2.023
1.877
1.734
1.594
1.46
1.332
1.21
1.097
0.9912
0.8943
0.8061
0.7268
0.6563
0.5942
0.5403
0.494
0.4549
3.545
3.528
3.495
3.447
3.383
3.305
3.215
3.112
2.999
2.877
2.746
2.61
2.468
2.324
2.177
2.031
1.886
1.743
1.604
1.47
1.342
1.221
1.107
1.002
0.9045
0.8162
0.7367
0.6659
0.6035
0.5493
0.5027
0.4632
3.548
3.531
3.499
3.45
3.387
3.311
3.221
3.119
3.007
2.886
2.757
2.621
2.481
2.338
2.193
2.047
1.903
1.761
1.623
1.489
1.362
1.241
1.128
1.022
0.925
0.8364
0.7565
0.6852
0.6222
0.5673
0.5201
0.48
3.552
3.536
3.503
3.456
3.394
3.318
3.23
3.129
3.019
2.899
2.772
2.638
2.5
2.358
2.215
2.071
1.928
1.788
1.651
1.519
1.392
1.272
1.158
1.053
0.9557
0.8668
0.7864
0.7144
0.6506
0.5948
0.5466
0.5055
3.518
3.501
3.467
3.417
3.351
3.271
3.178
3.072
2.955
2.829
2.695
2.555
2.409
2.261
2.111
1.961
1.812
1.666
1.524
1.388
1.258
1.136
1.022
0.9158
0.8191
0.7316
0.6533
0.5842
0.5239
0.4719
0.4278
0.3909
3.52
3.502
3.469
3.419
3.353
3.274
3.181
3.076
2.96
2.834
2.701
2.561
2.416
2.268
2.119
1.969
1.821
1.675
1.534
1.398
1.269
1.146
1.032
0.9261
0.8293
0.7416
0.6631
0.5936
0.5329
0.4806
0.436
0.3988
3.523
3.506
3.472
3.423
3.358
3.279
3.187
3.083
2.968
2.844
2.711
2.573
2.429
2.283
2.134
1.986
1.839
1.694
1.554
1.418
1.289
1.167
1.053
0.9468
0.8497
0.7616
0.6826
0.6125
0.5511
0.498
0.4527
0.4146
3.527
3.51
3.477
3.428
3.365
3.287
3.196
3.093
2.98
2.858
2.727
2.59
2.449
2.304
2.157
2.011
1.865
1.722
1.582
1.448
1.319
1.198
1.084
0.9778
0.8805
0.7919
0.7121
0.6411
0.5787
0.5246
0.4781
0.439
3.494
3.477
3.442
3.39
3.323
3.241
3.145
3.037
2.918
2.789
2.652
2.508
2.359
2.208
2.054
1.901
1.75
1.601
1.458
1.32
1.188
1.065
0.9498
0.844
0.7477
0.6611
0.5842
0.5167
0.4583
0.4085
0.3668
0.3323
3.496
3.478
3.444
3.392
3.326
3.244
3.149
3.041
2.922
2.794
2.657
2.514
2.366
2.215
2.063
1.91
1.759
1.611
1.468
1.33
1.199
1.075
0.9603
0.8544
0.7579
0.671
0.5937
0.5258
0.467
0.4168
0.3746
0.3397
3.499
3.481
3.447
3.396
3.33
3.25
3.155
3.048
2.931
2.804
2.668
2.526
2.38
2.23
2.079
1.927
1.777
1.63
1.487
1.35
1.219
1.096
0.9811
0.8751
0.7782
0.6908
0.6129
0.5442
0.4846
0.4335
0.3904
0.3546
3.503
3.486
3.452
3.402
3.337
3.258
3.165
3.059
2.943
2.818
2.684
2.545
2.4
2.252
2.102
1.952
1.804
1.658
1.517
1.38
1.25
1.127
1.012
0.9062
0.8089
0.7208
0.6419
0.5722
0.5114
0.459
0.4146
0.3776
3.472
3.454
3.418
3.366
3.297
3.213
3.115
3.005
2.883
2.751
2.61
2.464
2.312
2.157
2.001
1.845
1.691
1.54
1.394
1.254
1.122
0.9974
0.882
0.7764
0.6807
0.5951
0.5197
0.454
0.3978
0.3504
0.3112
0.2793
3.474
3.456
3.42
3.368
3.3
3.216
3.119
3.009
2.887
2.756
2.616
2.47
2.319
2.165
2.009
1.854
1.7
1.55
1.404
1.265
1.132
1.008
0.8925
0.7867
0.6907
0.6049
0.529
0.4629
0.4062
0.3583
0.3185
0.2861
3.477
3.459
3.424
3.372
3.304
3.222
3.125
3.016
2.896
2.766
2.627
2.483
2.333
2.18
2.026
1.871
1.719
1.569
1.424
1.285
1.153
1.029
0.9135
0.8073
0.7109
0.6244
0.5477
0.4807
0.423
0.3741
0.3334
0.3
3.481
3.464
3.429
3.378
3.311
3.23
3.135
3.027
2.909
2.781
2.644
2.501
2.354
2.203
2.05
1.897
1.746
1.598
1.454
1.316
1.184
1.06
0.9449
0.8385
0.7414
0.654
0.5762
0.5079
0.4489
0.3985
0.3563
0.3215
3.452
3.433
3.397
3.343
3.273
3.187
3.087
2.974
2.85
2.715
2.572
2.422
2.268
2.11
1.951
1.792
1.635
1.482
1.334
1.193
1.059
0.9341
0.8186
0.7131
0.6182
0.5339
0.4601
0.3966
0.3427
0.2979
0.2613
0.2321
3.453
3.435
3.399
3.345
3.275
3.19
3.091
2.978
2.854
2.72
2.578
2.429
2.275
2.118
1.959
1.801
1.645
1.492
1.345
1.203
1.07
0.9447
0.829
0.7234
0.6282
0.5435
0.4692
0.4051
0.3507
0.3052
0.2681
0.2383
3.456
3.438
3.402
3.35
3.28
3.196
3.097
2.986
2.863
2.73
2.589
2.442
2.289
2.133
1.976
1.819
1.664
1.512
1.365
1.224
1.091
0.9659
0.85
0.744
0.6481
0.5626
0.4874
0.4223
0.3667
0.3202
0.2819
0.251
3.461
3.443
3.408
3.356
3.288
3.204
3.107
2.998
2.877
2.746
2.607
2.461
2.31
2.156
2.001
1.845
1.692
1.541
1.395
1.255
1.122
0.9976
0.8816
0.775
0.6783
0.5918
0.5152
0.4486
0.3914
0.3432
0.3033
0.2709
3.433
3.414
3.377
3.322
3.251
3.163
3.061
2.946
2.819
2.682
2.536
2.384
2.226
2.066
1.904
1.743
1.584
1.429
1.279
1.136
1.001
0.8754
0.7597
0.6547
0.5607
0.4778
0.4059
0.3445
0.2931
0.2509
0.2171
0.1906
3.435
3.416
3.379
3.324
3.253
3.166
3.065
2.95
2.824
2.687
2.542
2.39
2.234
2.074
1.913
1.752
1.593
1.439
1.289
1.146
1.012
0.886
0.7702
0.6649
0.5705
0.4871
0.4146
0.3527
0.3006
0.2578
0.2233
0.1962
3.438
3.419
3.383
3.329
3.258
3.172
3.072
2.958
2.833
2.698
2.554
2.404
2.248
2.09
1.93
1.77
1.613
1.459
1.31
1.168
1.033
0.9073
0.7912
0.6854
0.5902
0.5059
0.4323
0.3691
0.3158
0.2717
0.236
0.2078
3.442
3.424
3.388
3.335
3.266
3.181
3.082
2.97
2.847
2.713
2.572
2.423
2.27
2.113
1.955
1.797
1.641
1.488
1.341
1.199
1.065
0.9392
0.8228
0.7163
0.6201
0.5345
0.4593
0.3945
0.3393
0.2934
0.2559
0.226
3.416
3.397
3.359
3.303
3.231
3.142
3.038
2.921
2.791
2.652
2.504
2.349
2.189
2.026
1.861
1.698
1.536
1.379
1.228
1.083
0.9477
0.8216
0.706
0.6015
0.5085
0.4271
0.3571
0.298
0.2492
0.2097
0.1786
0.1549
3.418
3.399
3.361
3.306
3.233
3.145
3.042
2.925
2.796
2.657
2.51
2.355
2.196
2.034
1.87
1.707
1.546
1.389
1.238
1.094
0.9585
0.8323
0.7164
0.6116
0.5182
0.4362
0.3655
0.3058
0.2562
0.216
0.1842
0.1598
3.421
3.402
3.365
3.31
3.238
3.151
3.049
2.933
2.806
2.668
2.522
2.369
2.211
2.05
1.887
1.725
1.566
1.41
1.259
1.115
0.9799
0.8536
0.7374
0.6319
0.5376
0.4545
0.3826
0.3215
0.2705
0.2289
0.1958
0.1701
3.426
3.407
3.371
3.317
3.246
3.16
3.059
2.945
2.82
2.684
2.54
2.389
2.233
2.074
1.913
1.753
1.595
1.44
1.29
1.147
1.012
0.8857
0.7689
0.6626
0.567
0.4825
0.4088
0.3457
0.2928
0.2491
0.2141
0.1866
3.401
3.381
3.343
3.287
3.213
3.122
3.017
2.898
2.767
2.625
2.474
2.317
2.155
1.989
1.823
1.657
1.493
1.335
1.182
1.036
0.8997
0.7732
0.6577
0.5538
0.4618
0.382
0.314
0.2572
0.211
0.1742
0.1459
0.1247
3.402
3.383
3.345
3.289
3.215
3.125
3.021
2.902
2.771
2.63
2.481
2.324
2.162
1.997
1.832
1.666
1.503
1.345
1.192
1.047
0.9105
0.7839
0.6681
0.5638
0.4713
0.3908
0.3221
0.2646
0.2175
0.18
0.1508
0.1289
3.406
3.387
3.349
3.293
3.221
3.132
3.028
2.911
2.781
2.641
2.493
2.338
2.177
2.014
1.849
1.685
1.523
1.365
1.213
1.069
0.9321
0.8053
0.689
0.5839
0.4904
0.4087
0.3385
0.2795
0.2308
0.1917
0.1611
0.138
3.411
3.392
3.355
3.3
3.228
3.141
3.038
2.923
2.795
2.658
2.511
2.358
2.2
2.038
1.876
1.713
1.553
1.396
1.245
1.101
0.9644
0.8374
0.7205
0.6143
0.5195
0.436
0.3638
0.3026
0.2518
0.2105
0.1778
0.1528
3.387
3.368
3.329
3.272
3.197
3.105
2.998
2.878
2.745
2.601
2.449
2.289
2.125
1.957
1.789
1.621
1.456
1.295
1.141
0.9945
0.8573
0.7306
0.6152
0.5119
0.4211
0.3427
0.2766
0.2222
0.1785
0.1443
0.1185
0.09978
3.389
3.37
3.331
3.274
3.2
3.109
3.002
2.882
2.75
2.607
2.455
2.296
2.132
1.966
1.798
1.63
1.466
1.306
1.152
1.005
0.8682
0.7413
0.6256
0.5218
0.4304
0.3513
0.2844
0.2291
0.1845
0.1494
0.1228
0.1033
3.393
3.373
3.335
3.279
3.205
3.115
3.01
2.891
2.76
2.618
2.468
2.31
2.148
1.982
1.816
1.649
1.486
1.327
1.173
1.027
0.8898
0.7626
0.6464
0.5417
0.4491
0.3687
0.3002
0.2432
0.1968
0.1601
0.1319
0.1111
3.398
3.379
3.341
3.285
3.213
3.124
3.02
2.903
2.774
2.634
2.486
2.331
2.171
2.007
1.842
1.678
1.516
1.358
1.205
1.059
0.9224
0.7948
0.6778
0.5719
0.4777
0.3954
0.3247
0.2653
0.2165
0.1774
0.147
0.1241
3.376
3.356
3.317
3.259
3.183
3.091
2.983
2.861
2.726
2.581
2.427
2.265
2.099
1.93
1.759
1.59
1.423
1.262
1.106
0.9588
0.8211
0.6941
0.579
0.4763
0.3865
0.3096
0.2453
0.1929
0.1515
0.1198
0.09639
0.07982
3.378
3.358
3.319
3.261
3.186
3.094
2.987
2.865
2.731
2.587
2.433
2.273
2.107
1.938
1.769
1.6
1.434
1.272
1.117
0.9697
0.832
0.7048
0.5893
0.4861
0.3956
0.3179
0.2527
0.1994
0.157
0.1243
0.1
0.08266
3.381
3.362
3.323
3.266
3.192
3.1
2.994
2.874
2.741
2.598
2.446
2.287
2.123
1.955
1.787
1.619
1.454
1.293
1.138
0.9915
0.8537
0.7262
0.61
0.5058
0.414
0.3348
0.2679
0.2127
0.1684
0.1339
0.1079
0.0891
3.386
3.367
3.329
3.273
3.199
3.11
3.005
2.886
2.756
2.615
2.465
2.308
2.146
1.98
1.814
1.648
1.484
1.325
1.171
1.024
0.8863
0.7584
0.6413
0.5357
0.4422
0.3608
0.2915
0.2337
0.1868
0.1497
0.1214
0.1006
3.367
3.347
3.307
3.249
3.172
3.079
2.97
2.847
2.711
2.564
2.409
2.246
2.078
1.907
1.736
1.565
1.397
1.234
1.078
0.9296
0.7914
0.6643
0.5494
0.4472
0.3584
0.2827
0.22
0.1694
0.13
0.1004
0.07904
0.06433
3.368
3.349
3.309
3.251
3.175
3.082
2.974
2.851
2.716
2.57
2.415
2.253
2.086
1.916
1.745
1.575
1.407
1.245
1.088
0.9405
0.8023
0.675
0.5596
0.457
0.3673
0.2908
0.2271
0.1755
0.135
0.1043
0.08201
0.06649
3.372
3.352
3.313
3.256
3.18
3.088
2.981
2.86
2.726
2.581
2.428
2.267
2.102
1.933
1.763
1.594
1.428
1.266
1.11
0.9624
0.8241
0.6963
0.5802
0.4765
0.3854
0.3073
0.2417
0.1881
0.1455
0.1129
0.08875
0.07172
3.377
3.358
3.319
3.263
3.188
3.098
2.992
2.873
2.741
2.598
2.447
2.289
2.125
1.959
1.791
1.623
1.458
1.297
1.143
0.9952
0.8568
0.7285
0.6114
0.5061
0.4132
0.3327
0.2646
0.2082
0.1628
0.1274
0.1008
0.08168
3.359
3.339
3.299
3.24
3.163
3.069
2.96
2.836
2.699
2.551
2.395
2.231
2.062
1.89
1.717
1.545
1.377
1.213
1.056
0.9072
0.7687
0.6416
0.5268
0.4252
0.3371
0.2625
0.201
0.1518
0.1139
0.08585
0.06606
0.05279
3.361
3.341
3.301
3.243
3.166
3.073
2.963
2.84
2.704
2.557
2.401
2.238
2.07
1.899
1.727
1.555
1.387
1.223
1.067
0.9182
0.7796
0.6522
0.5371
0.4348
0.3459
0.2704
0.2078
0.1575
0.1184
0.08927
0.06847
0.05436
3.364
3.345
3.305
3.248
3.172
3.079
2.971
2.849
2.714
2.569
2.414
2.253
2.086
1.916
1.745
1.575
1.408
1.245
1.088
0.9402
0.8014
0.6736
0.5576
0.4542
0.3638
0.2865
0.2219
0.1695
0.1282
0.09694
0.07422
0.05854
3.37
3.35
3.312
3.254
3.18
3.089
2.982
2.862
2.729
2.586
2.433
2.274
2.109
1.942
1.773
1.604
1.438
1.277
1.121
0.9731
0.8342
0.7057
0.5886
0.4836
0.3912
0.3115
0.2442
0.1888
0.1446
0.1104
0.08509
0.06723
3.353
3.333
3.293
3.234
3.157
3.063
2.952
2.828
2.691
2.542
2.385
2.221
2.051
1.878
1.705
1.532
1.363
1.198
1.041
0.8921
0.7534
0.6263
0.5118
0.4106
0.3231
0.2493
0.1886
0.1403
0.1033
0.07606
0.05712
0.04465
3.355
3.335
3.295
3.237
3.16
3.066
2.956
2.832
2.696
2.548
2.392
2.228
2.059
1.887
1.714
1.542
1.373
1.209
1.052
0.9031
0.7644
0.637
0.522
0.4202
0.3318
0.257
0.1953
0.1458
0.1075
0.07913
0.05911
0.04579
3.359
3.339
3.3
3.242
3.165
3.072
2.964
2.841
2.706
2.56
2.405
2.242
2.075
1.904
1.733
1.562
1.394
1.231
1.074
0.9251
0.7862
0.6583
0.5424
0.4393
0.3495
0.2728
0.209
0.1574
0.1168
0.08617
0.06414
0.04917
3.364
3.344
3.306
3.248
3.174
3.082
2.975
2.854
2.721
2.577
2.424
2.264
2.099
1.93
1.76
1.591
1.425
1.262
1.106
0.9581
0.819
0.6904
0.5733
0.4686
0.3766
0.2975
0.2309
0.1762
0.1326
0.09896
0.07421
0.057
3.35
3.33
3.29
3.23
3.153
3.058
2.948
2.823
2.686
2.537
2.38
2.215
2.045
1.872
1.698
1.526
1.356
1.191
1.034
0.8846
0.7459
0.6189
0.5046
0.4037
0.3167
0.2435
0.1835
0.1357
0.09889
0.07157
0.05227
0.03948
3.352
3.332
3.292
3.233
3.156
3.062
2.952
2.828
2.691
2.543
2.386
2.222
2.053
1.881
1.708
1.535
1.366
1.202
1.045
0.8956
0.7568
0.6295
0.5147
0.4132
0.3254
0.2512
0.19
0.1411
0.103
0.0745
0.05408
0.04035
3.355
3.335
3.296
3.238
3.161
3.068
2.96
2.837
2.701
2.555
2.399
2.237
2.069
1.898
1.726
1.555
1.387
1.223
1.066
0.9176
0.7786
0.6507
0.535
0.4323
0.3429
0.2668
0.2036
0.1524
0.1121
0.08132
0.05881
0.04328
3.36
3.341
3.302
3.245
3.17
3.078
2.971
2.85
2.716
2.572
2.419
2.259
2.093
1.924
1.754
1.585
1.418
1.255
1.099
0.9506
0.8114
0.6828
0.5659
0.4614
0.3698
0.2911
0.2251
0.1709
0.1276
0.09391
0.06873
0.05093
3.348
3.328
3.288
3.229
3.151
3.057
2.947
2.822
2.685
2.536
2.379
2.214
2.044
1.872
1.698
1.525
1.355
1.191
1.033
0.8843
0.7457
0.6188
0.5047
0.4041
0.3174
0.2446
0.1851
0.1379
0.1013
0.07349
0.05243
0.03688
3.35
3.33
3.29
3.231
3.154
3.06
2.951
2.827
2.69
2.542
2.385
2.221
2.052
1.88
1.707
1.535
1.366
1.202
1.044
0.8953
0.7566
0.6294
0.5148
0.4135
0.326
0.2522
0.1916
0.1432
0.1055
0.07652
0.05435
0.03763
3.353
3.334
3.294
3.236
3.16
3.067
2.958
2.835
2.7
2.554
2.398
2.236
2.068
1.898
1.726
1.555
1.386
1.223
1.066
0.9173
0.7784
0.6507
0.5351
0.4325
0.3434
0.2677
0.2051
0.1545
0.1146
0.0835
0.05931
0.04045
3.359
3.339
3.3
3.243
3.168
3.076
2.969
2.849
2.715
2.571
2.418
2.258
2.092
1.923
1.753
1.584
1.417
1.255
1.099
0.9503
0.8112
0.6827
0.5659
0.4616
0.3702
0.2919
0.2264
0.1728
0.13
0.09627
0.06984
0.04883
2.925
2.806
2.683
2.558
2.432
2.307
2.182
2.06
1.941
1.825
1.714
1.609
1.509
1.415
1.327
1.246
1.172
1.105
1.044
0.9899
0.9422
3.06
2.948
2.831
2.711
2.589
2.466
2.343
2.221
2.1
1.983
1.869
1.76
1.656
1.557
1.464
1.377
1.297
1.223
1.155
1.094
1.04
0.992
3.187
3.083
2.974
2.861
2.744
2.625
2.505
2.385
2.265
2.148
2.033
1.922
1.814
1.712
1.614
1.523
1.437
1.357
1.283
1.216
1.155
1.101
1.053
3.303
3.209
3.109
3.004
2.894
2.781
2.666
2.549
2.433
2.317
2.202
2.091
1.982
1.877
1.777
1.681
1.591
1.506
1.427
1.354
1.288
1.227
1.173
1.124
3.323
3.233
3.137
3.036
2.93
2.821
2.71
2.598
2.486
2.374
2.263
2.155
2.049
1.947
1.849
1.756
1.668
1.585
1.507
1.435
1.37
1.309
1.255
1.207
3.423
3.344
3.258
3.166
3.069
2.969
2.865
2.759
2.651
2.543
2.436
2.329
2.225
2.123
2.025
1.93
1.84
1.754
1.673
1.597
1.527
1.462
1.403
1.349
1.301
3.506
3.439
3.364
3.283
3.196
3.104
3.009
2.91
2.809
2.707
2.604
2.502
2.401
2.301
2.203
2.109
2.018
1.931
1.848
1.769
1.696
1.627
1.564
1.506
1.454
1.406
3.572
3.517
3.453
3.383
3.307
3.226
3.14
3.05
2.957
2.862
2.766
2.669
2.572
2.476
2.381
2.288
2.198
2.112
2.028
1.949
1.873
1.803
1.737
1.675
1.619
1.568
1.522
3.62
3.576
3.525
3.466
3.401
3.33
3.255
3.174
3.091
3.004
2.915
2.825
2.735
2.644
2.554
2.465
2.378
2.293
2.211
2.132
2.056
1.985
1.917
1.854
1.795
1.741
1.692
1.648
3.65
3.617
3.577
3.529
3.476
3.416
3.351
3.281
3.208
3.131
3.051
2.969
2.886
2.801
2.717
2.634
2.551
2.47
2.39
2.314
2.239
2.169
2.101
2.038
1.978
1.922
1.871
1.824
1.782
3.662
3.639
3.609
3.573
3.53
3.482
3.428
3.369
3.305
3.238
3.168
3.096
3.021
2.945
2.868
2.791
2.714
2.638
2.563
2.49
2.419
2.351
2.285
2.222
2.163
2.107
2.055
2.007
1.963
1.923
3.657
3.643
3.623
3.596
3.564
3.526
3.483
3.435
3.382
3.326
3.266
3.203
3.138
3.071
3.003
2.933
2.864
2.794
2.725
2.657
2.591
2.526
2.463
2.403
2.345
2.291
2.239
2.191
2.147
2.106
2.068
3.636
3.629
3.617
3.6
3.577
3.549
3.516
3.478
3.436
3.391
3.341
3.289
3.234
3.176
3.117
3.057
2.995
2.934
2.872
2.81
2.75
2.69
2.632
2.575
2.521
2.469
2.419
2.372
2.328
2.287
2.25
2.216
3.602
3.596
3.586
3.572
3.552
3.528
3.5
3.468
3.432
3.393
3.35
3.305
3.258
3.208
3.157
3.104
3.05
2.996
2.942
2.888
2.834
2.781
2.73
2.679
2.631
2.584
2.539
2.497
2.458
2.421
2.387
2.356
3.572
3.567
3.559
3.546
3.529
3.508
3.483
3.455
3.424
3.389
3.352
3.312
3.27
3.226
3.18
3.133
3.085
3.037
2.988
2.939
2.891
2.843
2.796
2.75
2.706
2.663
2.622
2.583
2.547
2.513
2.481
2.452
3.673
3.658
3.63
3.588
3.534
3.467
3.39
3.302
3.205
3.099
2.987
2.869
2.746
2.62
2.492
2.363
2.235
2.107
1.982
1.86
1.743
1.63
1.523
1.422
1.327
1.239
1.157
1.083
1.016
0.9556
0.902
0.8549
3.677
3.663
3.635
3.595
3.542
3.477
3.401
3.315
3.221
3.118
3.008
2.893
2.773
2.65
2.524
2.398
2.272
2.147
2.024
1.904
1.788
1.677
1.571
1.471
1.377
1.289
1.208
1.134
1.066
1.006
0.9519
0.9043
3.682
3.668
3.641
3.602
3.55
3.488
3.414
3.331
3.239
3.139
3.032
2.92
2.803
2.684
2.561
2.438
2.315
2.193
2.073
1.956
1.842
1.733
1.628
1.529
1.436
1.35
1.269
1.195
1.128
1.067
1.013
0.9647
3.686
3.673
3.647
3.609
3.559
3.499
3.428
3.348
3.259
3.162
3.059
2.951
2.838
2.722
2.604
2.484
2.365
2.246
2.129
2.015
1.904
1.797
1.695
1.597
1.506
1.42
1.34
1.267
1.2
1.139
1.085
1.036
3.69
3.677
3.652
3.616
3.568
3.51
3.442
3.365
3.28
3.187
3.088
2.984
2.876
2.764
2.65
2.535
2.42
2.305
2.192
2.081
1.973
1.869
1.769
1.675
1.585
1.5
1.422
1.349
1.283
1.222
1.168
1.12
3.692
3.679
3.656
3.621
3.576
3.521
3.456
3.382
3.301
3.213
3.119
3.019
2.916
2.809
2.7
2.59
2.479
2.369
2.26
2.153
2.05
1.949
1.852
1.76
1.673
1.59
1.514
1.442
1.377
1.317
1.263
1.215
3.691
3.68
3.657
3.625
3.582
3.53
3.469
3.399
3.323
3.239
3.15
3.056
2.958
2.856
2.753
2.648
2.543
2.438
2.334
2.232
2.132
2.036
1.943
1.854
1.769
1.689
1.615
1.545
1.481
1.422
1.369
1.322
3.688
3.678
3.657
3.626
3.586
3.537
3.48
3.415
3.343
3.265
3.181
3.092
3
2.905
2.807
2.708
2.609
2.51
2.411
2.315
2.22
2.128
2.039
1.954
1.873
1.796
1.724
1.657
1.595
1.538
1.486
1.44
3.682
3.672
3.652
3.624
3.587
3.542
3.489
3.428
3.362
3.289
3.211
3.129
3.043
2.954
2.863
2.771
2.678
2.585
2.492
2.401
2.312
2.225
2.141
2.061
1.984
1.911
1.842
1.778
1.718
1.663
1.613
1.568
3.671
3.662
3.644
3.618
3.584
3.542
3.494
3.439
3.377
3.311
3.239
3.163
3.084
3.002
2.918
2.833
2.747
2.661
2.575
2.49
2.407
2.326
2.248
2.172
2.1
2.031
1.966
1.905
1.849
1.796
1.749
1.706
3.655
3.646
3.63
3.607
3.576
3.539
3.495
3.445
3.39
3.329
3.264
3.196
3.124
3.049
2.973
2.895
2.816
2.737
2.659
2.581
2.504
2.43
2.357
2.287
2.22
2.156
2.095
2.038
1.985
1.936
1.891
1.851
3.633
3.625
3.611
3.59
3.563
3.53
3.491
3.447
3.397
3.343
3.286
3.224
3.16
3.093
3.025
2.955
2.884
2.813
2.742
2.671
2.602
2.534
2.468
2.404
2.342
2.283
2.228
2.175
2.126
2.081
2.039
2.001
3.604
3.597
3.585
3.567
3.544
3.515
3.481
3.442
3.399
3.353
3.302
3.248
3.192
3.133
3.073
3.011
2.948
2.885
2.822
2.759
2.697
2.636
2.577
2.519
2.464
2.411
2.36
2.312
2.268
2.226
2.188
2.153
3.569
3.563
3.553
3.538
3.518
3.494
3.465
3.432
3.395
3.355
3.312
3.266
3.217
3.166
3.114
3.06
3.006
2.95
2.895
2.84
2.785
2.731
2.678
2.627
2.578
2.53
2.485
2.442
2.401
2.364
2.329
2.297
3.538
3.533
3.525
3.511
3.494
3.473
3.448
3.419
3.387
3.352
3.314
3.273
3.23
3.185
3.138
3.091
3.042
2.992
2.943
2.893
2.844
2.795
2.747
2.7
2.655
2.612
2.57
2.53
2.493
2.459
2.426
2.397
3.641
3.626
3.597
3.554
3.498
3.43
3.35
3.26
3.16
3.051
2.936
2.814
2.688
2.559
2.428
2.296
2.164
2.034
1.906
1.782
1.662
1.548
1.439
1.336
1.241
1.152
1.071
0.9965
0.9295
0.8698
0.8169
0.7708
3.646
3.632
3.603
3.561
3.507
3.44
3.362
3.274
3.176
3.07
2.958
2.839
2.716
2.589
2.461
2.331
2.202
2.074
1.949
1.827
1.709
1.595
1.488
1.386
1.291
1.203
1.122
1.047
0.9801
0.9198
0.8664
0.8195
3.651
3.637
3.609
3.569
3.516
3.451
3.376
3.29
3.195
3.092
2.983
2.867
2.748
2.625
2.499
2.373
2.247
2.122
1.999
1.879
1.764
1.652
1.546
1.446
1.352
1.264
1.183
1.109
1.042
0.9809
0.9269
0.8794
3.656
3.642
3.615
3.576
3.525
3.463
3.39
3.307
3.216
3.117
3.011
2.899
2.783
2.664
2.543
2.421
2.298
2.177
2.057
1.94
1.827
1.718
1.614
1.516
1.423
1.336
1.255
1.181
1.114
1.053
0.9989
0.9508
3.66
3.646
3.621
3.583
3.534
3.475
3.405
3.326
3.238
3.143
3.041
2.934
2.823
2.708
2.591
2.473
2.355
2.237
2.122
2.008
1.899
1.792
1.691
1.594
1.503
1.418
1.338
1.265
1.198
1.137
1.083
1.034
3.662
3.649
3.625
3.589
3.543
3.486
3.419
3.344
3.26
3.17
3.073
2.971
2.864
2.755
2.643
2.53
2.416
2.304
2.192
2.083
1.977
1.874
1.776
1.682
1.593
1.51
1.432
1.359
1.293
1.233
1.179
1.13
3.662
3.65
3.627
3.593
3.549
3.496
3.433
3.362
3.283
3.197
3.105
3.008
2.908
2.804
2.698
2.59
2.482
2.375
2.268
2.164
2.062
1.964
1.869
1.778
1.692
1.611
1.535
1.464
1.399
1.34
1.286
1.238
3.659
3.648
3.626
3.595
3.554
3.503
3.445
3.378
3.304
3.224
3.138
3.047
2.952
2.854
2.754
2.653
2.551
2.449
2.349
2.25
2.153
2.059
1.968
1.882
1.799
1.721
1.647
1.579
1.516
1.458
1.405
1.358
3.652
3.642
3.622
3.593
3.555
3.508
3.454
3.392
3.323
3.249
3.169
3.084
2.996
2.905
2.812
2.717
2.622
2.527
2.432
2.339
2.248
2.159
2.074
1.991
1.913
1.838
1.768
1.703
1.642
1.586
1.535
1.49
3.641
3.632
3.614
3.587
3.552
3.51
3.46
3.403
3.34
3.272
3.198
3.121
3.039
2.956
2.87
2.782
2.694
2.606
2.518
2.431
2.347
2.264
2.184
2.106
2.033
1.962
1.896
1.834
1.776
1.723
1.675
1.631
3.625
3.616
3.6
3.576
3.545
3.506
3.461
3.41
3.353
3.291
3.225
3.154
3.081
3.004
2.926
2.846
2.766
2.685
2.605
2.525
2.447
2.371
2.297
2.225
2.156
2.091
2.029
1.971
1.917
1.867
1.821
1.78
3.602
3.595
3.58
3.559
3.531
3.497
3.457
3.412
3.361
3.306
3.247
3.184
3.119
3.05
2.98
2.908
2.836
2.763
2.691
2.619
2.548
2.478
2.411
2.345
2.283
2.223
2.166
2.112
2.062
2.016
1.973
1.935
3.573
3.566
3.554
3.535
3.511
3.482
3.447
3.408
3.364
3.316
3.264
3.209
3.152
3.092
3.03
2.967
2.903
2.838
2.774
2.71
2.647
2.584
2.524
2.465
2.409
2.354
2.303
2.254
2.209
2.166
2.127
2.092
3.537
3.532
3.521
3.506
3.485
3.461
3.431
3.398
3.36
3.319
3.275
3.228
3.178
3.126
3.073
3.018
2.962
2.906
2.85
2.793
2.737
2.683
2.629
2.577
2.526
2.478
2.431
2.388
2.347
2.308
2.273
2.241
3.506
3.501
3.492
3.479
3.461
3.439
3.414
3.384
3.352
3.316
3.277
3.235
3.192
3.146
3.098
3.05
3
2.95
2.899
2.848
2.798
2.748
2.7
2.652
2.606
2.562
2.52
2.479
2.442
2.406
2.374
2.344
3.612
3.596
3.566
3.522
3.465
3.394
3.312
3.219
3.116
3.005
2.886
2.761
2.632
2.499
2.365
2.229
2.095
1.962
1.831
1.705
1.583
1.467
1.357
1.253
1.157
1.068
0.9863
0.9124
0.846
0.787
0.7351
0.69
3.617
3.602
3.573
3.53
3.473
3.405
3.325
3.234
3.133
3.025
2.909
2.787
2.66
2.531
2.399
2.266
2.134
2.003
1.875
1.751
1.631
1.516
1.407
1.304
1.208
1.119
1.038
0.9633
0.8964
0.8366
0.7839
0.7379
3.622
3.608
3.579
3.537
3.483
3.416
3.339
3.25
3.153
3.047
2.935
2.816
2.693
2.567
2.439
2.309
2.18
2.053
1.927
1.805
1.687
1.574
1.466
1.365
1.269
1.181
1.1
1.025
0.9577
0.8974
0.8439
0.797
3.627
3.613
3.586
3.545
3.493
3.429
3.354
3.269
3.175
3.073
2.964
2.849
2.731
2.608
2.484
2.358
2.233
2.109
1.987
1.868
1.752
1.641
1.536
1.435
1.341
1.254
1.172
1.098
1.031
0.9697
0.9156
0.8679
3.631
3.617
3.591
3.553
3.502
3.441
3.369
3.288
3.197
3.1
2.995
2.885
2.771
2.653
2.534
2.413
2.292
2.172
2.053
1.938
1.825
1.717
1.614
1.516
1.423
1.337
1.256
1.183
1.115
1.054
0.9995
0.9513
3.633
3.62
3.596
3.559
3.511
3.453
3.384
3.307
3.221
3.128
3.028
2.923
2.814
2.702
2.587
2.471
2.355
2.24
2.126
2.015
1.906
1.802
1.701
1.606
1.515
1.43
1.351
1.278
1.211
1.151
1.096
1.048
3.634
3.621
3.598
3.563
3.518
3.463
3.398
3.325
3.244
3.156
3.062
2.963
2.859
2.753
2.644
2.534
2.423
2.313
2.205
2.098
1.994
1.893
1.796
1.704
1.616
1.534
1.457
1.385
1.319
1.259
1.205
1.157
3.631
3.619
3.597
3.565
3.523
3.471
3.411
3.342
3.266
3.184
3.096
3.002
2.905
2.805
2.703
2.599
2.495
2.391
2.288
2.186
2.087
1.991
1.899
1.81
1.726
1.647
1.572
1.502
1.438
1.379
1.326
1.279
3.624
3.614
3.593
3.564
3.524
3.477
3.421
3.357
3.287
3.21
3.128
3.042
2.951
2.858
2.762
2.666
2.568
2.471
2.374
2.279
2.186
2.095
2.008
1.923
1.843
1.767
1.696
1.629
1.567
1.511
1.459
1.413
3.613
3.604
3.585
3.558
3.522
3.478
3.427
3.369
3.304
3.234
3.159
3.079
2.996
2.91
2.822
2.733
2.643
2.552
2.463
2.374
2.287
2.203
2.121
2.042
1.967
1.895
1.827
1.764
1.705
1.651
1.602
1.557
3.597
3.588
3.571
3.547
3.514
3.475
3.429
3.376
3.318
3.255
3.187
3.115
3.039
2.961
2.881
2.799
2.717
2.634
2.552
2.471
2.391
2.313
2.238
2.165
2.095
2.028
1.965
1.906
1.85
1.799
1.753
1.711
3.574
3.566
3.551
3.529
3.501
3.466
3.425
3.379
3.327
3.271
3.21
3.146
3.079
3.009
2.937
2.864
2.79
2.715
2.641
2.568
2.495
2.425
2.356
2.289
2.225
2.164
2.106
2.051
2
1.953
1.91
1.87
3.544
3.537
3.524
3.505
3.481
3.451
3.415
3.375
3.33
3.281
3.228
3.172
3.113
3.052
2.989
2.925
2.859
2.793
2.728
2.662
2.598
2.534
2.473
2.413
2.355
2.3
2.247
2.198
2.151
2.108
2.068
2.032
3.507
3.502
3.491
3.475
3.454
3.429
3.399
3.365
3.326
3.285
3.239
3.191
3.141
3.088
3.033
2.977
2.921
2.863
2.806
2.748
2.692
2.636
2.581
2.528
2.476
2.427
2.38
2.335
2.294
2.255
2.219
2.186
3.475
3.47
3.461
3.447
3.43
3.407
3.381
3.351
3.318
3.281
3.242
3.2
3.155
3.108
3.06
3.01
2.96
2.909
2.857
2.806
2.754
2.704
2.654
2.606
2.559
2.514
2.471
2.43
2.392
2.356
2.323
2.292
3.584
3.568
3.537
3.492
3.432
3.36
3.276
3.18
3.074
2.96
2.838
2.71
2.578
2.442
2.304
2.165
2.027
1.892
1.759
1.63
1.506
1.388
1.277
1.172
1.075
0.9862
0.9049
0.8314
0.7658
0.7077
0.657
0.6132
3.589
3.574
3.544
3.499
3.442
3.371
3.289
3.195
3.092
2.98
2.861
2.736
2.607
2.474
2.339
2.203
2.068
1.934
1.804
1.677
1.555
1.438
1.328
1.224
1.127
1.038
0.9561
0.8821
0.8156
0.7566
0.7048
0.6599
3.594
3.579
3.55
3.507
3.452
3.383
3.303
3.213
3.113
3.004
2.889
2.767
2.641
2.511
2.38
2.248
2.116
1.985
1.857
1.733
1.612
1.497
1.388
1.285
1.189
1.1
1.018
0.9439
0.8767
0.8168
0.764
0.7179
3.6
3.585
3.557
3.516
3.462
3.396
3.319
3.231
3.135
3.03
2.919
2.801
2.679
2.554
2.427
2.298
2.17
2.043
1.918
1.797
1.679
1.566
1.459
1.357
1.262
1.174
1.092
1.017
0.9495
0.8889
0.8351
0.788
3.604
3.59
3.563
3.524
3.472
3.409
3.335
3.251
3.159
3.058
2.951
2.838
2.721
2.601
2.478
2.354
2.23
2.108
1.987
1.869
1.754
1.644
1.539
1.439
1.346
1.258
1.177
1.102
1.034
0.9734
0.9189
0.8709
3.606
3.593
3.568
3.53
3.481
3.421
3.351
3.271
3.183
3.087
2.985
2.878
2.766
2.651
2.533
2.415
2.296
2.178
2.062
1.948
1.837
1.731
1.628
1.531
1.439
1.353
1.273
1.199
1.132
1.071
1.016
0.9672
3.607
3.594
3.57
3.535
3.489
3.432
3.366
3.29
3.207
3.117
3.02
2.919
2.813
2.703
2.592
2.479
2.366
2.254
2.143
2.034
1.927
1.825
1.726
1.632
1.543
1.459
1.38
1.308
1.241
1.18
1.126
1.077
3.604
3.593
3.57
3.537
3.494
3.441
3.379
3.308
3.231
3.146
3.055
2.96
2.86
2.758
2.653
2.547
2.44
2.333
2.228
2.125
2.024
1.926
1.831
1.741
1.655
1.574
1.498
1.427
1.362
1.303
1.249
1.201
3.598
3.587
3.566
3.536
3.496
3.447
3.389
3.324
3.252
3.173
3.089
3.001
2.908
2.813
2.715
2.616
2.516
2.416
2.317
2.22
2.125
2.032
1.943
1.857
1.776
1.698
1.625
1.557
1.494
1.437
1.384
1.337
3.587
3.577
3.558
3.53
3.493
3.448
3.396
3.336
3.27
3.198
3.121
3.04
2.955
2.867
2.777
2.685
2.593
2.501
2.409
2.319
2.23
2.144
2.06
1.979
1.902
1.829
1.76
1.696
1.636
1.581
1.53
1.485
3.57
3.561
3.544
3.519
3.486
3.445
3.398
3.344
3.285
3.22
3.15
3.076
2.999
2.919
2.837
2.754
2.67
2.586
2.502
2.419
2.337
2.258
2.18
2.106
2.034
1.966
1.902
1.841
1.785
1.733
1.686
1.643
3.547
3.539
3.524
3.501
3.472
3.437
3.395
3.347
3.294
3.237
3.175
3.109
3.04
2.969
2.896
2.821
2.745
2.669
2.594
2.519
2.445
2.373
2.302
2.234
2.169
2.106
2.047
1.992
1.94
1.891
1.847
1.807
3.516
3.509
3.496
3.477
3.452
3.421
3.385
3.344
3.298
3.248
3.194
3.137
3.076
3.014
2.95
2.884
2.817
2.75
2.683
2.616
2.551
2.486
2.423
2.362
2.303
2.247
2.193
2.143
2.095
2.052
2.011
1.975
3.479
3.473
3.462
3.446
3.425
3.399
3.368
3.333
3.294
3.252
3.206
3.157
3.105
3.051
2.996
2.939
2.881
2.822
2.764
2.705
2.648
2.591
2.535
2.481
2.429
2.378
2.33
2.285
2.243
2.203
2.167
2.133
3.446
3.441
3.432
3.418
3.4
3.377
3.35
3.32
3.286
3.249
3.208
3.165
3.12
3.073