/*--------------------------------*- C++ -*----------------------------------*\
  =========                 |
  \\      /  F ield         | OpenFOAM: The Open Source CFD Toolbox
   \\    /   O peration     | Website:  https://openfoam.org
    \\  /    A nd           | Version:  6
     \\/     M anipulation  |
\*---------------------------------------------------------------------------*/
FoamFile
{
    version     2.0;
    format      ascii;
    class       volVectorField;
    location    "0";
    object      Da;
}
// * * * * * * * * * * * * * * * * * * * * * * * * * * * * * * * * * * * * * //

dimensions      [0 1 0 0 0 0 0];

internalField   uniform (0 0 0);

boundaryField
{
    inlet
    {
        type            adjTractionDisplacement;
        traction        uniform ( 0 0 0 );
        pressure        uniform 0;
        value           nonuniform 0();
    }
    outlet
    {
        type            adjTractionDisplacement;
        traction        uniform ( 0 0 0 );
        pressure        uniform 0;
        value           nonuniform 0();
    }
    force
    {
        type            adjTractionDisplacement;
        traction        uniform ( 0 -30000000 0 );
        pressure        uniform 0;
        value           uniform (0 0 0);
    }
    wall
    {
        type            adjTractionDisplacement;
        traction        uniform ( 0 0 0 );
        pressure        uniform 0;
        value           uniform (0 0 0);
    }
    sym
    {
        type            symmetry;
    }
    procBoundary1to0
    {
        type            processor;
        value           uniform (0 0 0);
    }
    procBoundary1to2
    {
        type            processor;
        value           uniform (0 0 0);
    }
}


// ************************************************************************* //
