/*--------------------------------*- C++ -*----------------------------------*\
  =========                 |
  \\      /  F ield         | OpenFOAM: The Open Source CFD Toolbox
   \\    /   O peration     | Website:  https://openfoam.org
    \\  /    A nd           | Version:  6
     \\/     M anipulation  |
\*---------------------------------------------------------------------------*/
FoamFile
{
    version     2.0;
    format      ascii;
    class       volScalarField;
    location    "10";
    object      T;
}
// * * * * * * * * * * * * * * * * * * * * * * * * * * * * * * * * * * * * * //

dimensions      [0 0 0 1 0 0 0];

internalField   nonuniform List<scalar> 
16128
(
7.359
7.357
7.354
7.35
7.344
7.336
7.328
7.318
7.306
7.293
7.279
7.263
7.246
7.228
7.208
7.187
7.164
7.14
7.115
7.088
7.059
7.029
6.997
6.963
6.927
6.89
6.85
6.807
6.76
6.709
6.652
6.583
7.354
7.353
7.35
7.345
7.339
7.332
7.323
7.313
7.302
7.289
7.274
7.259
7.242
7.223
7.204
7.182
7.16
7.135
7.11
7.083
7.054
7.023
6.991
6.957
6.921
6.883
6.842
6.798
6.751
6.699
6.641
6.572
7.345
7.344
7.341
7.336
7.33
7.323
7.314
7.304
7.293
7.28
7.265
7.25
7.233
7.214
7.194
7.173
7.15
7.126
7.1
7.073
7.044
7.013
6.98
6.945
6.909
6.87
6.828
6.783
6.734
6.68
6.621
6.552
7.332
7.33
7.327
7.323
7.317
7.309
7.301
7.29
7.279
7.266
7.252
7.236
7.219
7.201
7.181
7.159
7.136
7.112
7.086
7.058
7.029
6.997
6.964
6.929
6.891
6.851
6.808
6.761
6.711
6.655
6.594
6.524
7.349
7.347
7.344
7.339
7.333
7.326
7.317
7.306
7.295
7.282
7.267
7.251
7.234
7.215
7.195
7.173
7.15
7.126
7.099
7.071
7.042
7.01
6.977
6.942
6.904
6.864
6.82
6.772
6.719
6.658
6.585
6.495
7.344
7.343
7.339
7.335
7.329
7.321
7.312
7.302
7.29
7.277
7.263
7.247
7.23
7.211
7.191
7.169
7.146
7.121
7.095
7.067
7.037
7.005
6.972
6.936
6.898
6.857
6.813
6.765
6.711
6.649
6.577
6.489
7.335
7.333
7.33
7.326
7.32
7.312
7.303
7.293
7.281
7.268
7.254
7.238
7.221
7.202
7.182
7.16
7.136
7.112
7.085
7.057
7.027
6.995
6.961
6.925
6.886
6.845
6.8
6.751
6.696
6.634
6.563
6.477
7.322
7.32
7.317
7.312
7.306
7.299
7.29
7.279
7.268
7.255
7.24
7.224
7.207
7.188
7.168
7.146
7.123
7.098
7.071
7.042
7.012
6.98
6.945
6.909
6.869
6.827
6.781
6.731
6.676
6.614
6.543
6.46
7.328
7.326
7.323
7.318
7.312
7.304
7.295
7.284
7.272
7.259
7.244
7.227
7.209
7.19
7.169
7.146
7.122
7.096
7.068
7.039
7.007
6.974
6.938
6.899
6.857
6.812
6.762
6.707
6.644
6.572
6.486
6.383
7.324
7.322
7.319
7.314
7.308
7.3
7.291
7.28
7.268
7.254
7.239
7.223
7.205
7.185
7.164
7.142
7.118
7.092
7.064
7.034
7.003
6.969
6.933
6.894
6.852
6.806
6.756
6.701
6.638
6.566
6.482
6.381
7.315
7.313
7.31
7.305
7.299
7.291
7.282
7.271
7.259
7.246
7.231
7.214
7.196
7.177
7.156
7.133
7.109
7.083
7.055
7.025
6.993
6.959
6.923
6.883
6.841
6.795
6.745
6.689
6.627
6.556
6.473
6.377
7.301
7.3
7.296
7.292
7.285
7.278
7.268
7.258
7.246
7.232
7.217
7.201
7.183
7.163
7.142
7.12
7.095
7.069
7.041
7.011
6.979
6.945
6.908
6.869
6.826
6.78
6.729
6.673
6.611
6.542
6.462
6.371
7.298
7.296
7.292
7.287
7.281
7.273
7.263
7.252
7.239
7.225
7.209
7.192
7.173
7.152
7.13
7.106
7.08
7.053
7.023
6.991
6.957
6.92
6.881
6.838
6.791
6.74
6.684
6.621
6.549
6.468
6.374
6.265
7.294
7.292
7.288
7.283
7.276
7.268
7.259
7.247
7.235
7.221
7.205
7.188
7.169
7.148
7.126
7.102
7.076
7.048
7.019
6.987
6.952
6.916
6.876
6.833
6.786
6.735
6.679
6.616
6.545
6.465
6.373
6.266
7.285
7.283
7.279
7.274
7.268
7.26
7.25
7.239
7.226
7.212
7.196
7.179
7.16
7.14
7.117
7.093
7.067
7.04
7.01
6.978
6.944
6.907
6.867
6.824
6.777
6.726
6.67
6.608
6.538
6.459
6.37
6.268
7.272
7.27
7.266
7.261
7.255
7.247
7.237
7.226
7.213
7.199
7.183
7.166
7.147
7.127
7.105
7.081
7.055
7.027
6.997
6.965
6.931
6.894
6.854
6.811
6.764
6.713
6.657
6.596
6.527
6.451
6.365
6.27
7.259
7.256
7.253
7.247
7.24
7.231
7.221
7.209
7.196
7.181
7.164
7.146
7.126
7.104
7.08
7.054
7.027
6.997
6.965
6.93
6.893
6.853
6.809
6.762
6.71
6.654
6.591
6.521
6.444
6.356
6.258
6.148
7.254
7.252
7.248
7.243
7.236
7.227
7.217
7.205
7.192
7.177
7.16
7.142
7.122
7.1
7.076
7.05
7.023
6.993
6.961
6.926
6.889
6.849
6.805
6.758
6.706
6.65
6.588
6.518
6.441
6.355
6.259
6.152
7.246
7.244
7.24
7.235
7.228
7.219
7.209
7.197
7.184
7.169
7.152
7.134
7.113
7.092
7.068
7.042
7.015
6.985
6.953
6.918
6.881
6.841
6.797
6.75
6.699
6.643
6.581
6.513
6.437
6.353
6.26
6.157
7.233
7.231
7.227
7.222
7.215
7.206
7.196
7.184
7.171
7.156
7.14
7.121
7.101
7.079
7.056
7.03
7.002
6.973
6.941
6.906
6.869
6.829
6.786
6.739
6.688
6.632
6.571
6.504
6.431
6.35
6.261
6.164
7.211
7.208
7.204
7.198
7.191
7.182
7.171
7.158
7.144
7.128
7.11
7.09
7.069
7.045
7.02
6.992
6.962
6.93
6.895
6.858
6.817
6.774
6.726
6.675
6.618
6.557
6.489
6.415
6.333
6.242
6.143
6.035
7.207
7.204
7.2
7.194
7.187
7.178
7.167
7.154
7.14
7.124
7.106
7.086
7.065
7.041
7.016
6.988
6.959
6.926
6.892
6.854
6.814
6.77
6.723
6.671
6.615
6.554
6.487
6.413
6.332
6.243
6.145
6.039
7.199
7.196
7.192
7.186
7.179
7.17
7.159
7.146
7.132
7.116
7.098
7.079
7.057
7.034
7.008
6.981
6.951
6.919
6.884
6.847
6.807
6.763
6.716
6.665
6.609
6.549
6.483
6.41
6.33
6.243
6.149
6.047
7.186
7.184
7.18
7.174
7.167
7.157
7.147
7.134
7.12
7.104
7.086
7.067
7.045
7.022
6.997
6.969
6.94
6.908
6.873
6.836
6.796
6.753
6.706
6.656
6.601
6.541
6.476
6.405
6.328
6.244
6.153
6.057
7.155
7.153
7.148
7.142
7.134
7.124
7.112
7.099
7.083
7.066
7.047
7.026
7.003
6.978
6.951
6.921
6.889
6.854
6.817
6.777
6.733
6.686
6.635
6.579
6.519
6.454
6.383
6.305
6.22
6.129
6.03
5.925
7.151
7.149
7.144
7.138
7.13
7.12
7.108
7.095
7.08
7.062
7.043
7.023
7
6.974
6.947
6.918
6.886
6.851
6.814
6.773
6.73
6.683
6.632
6.577
6.517
6.452
6.381
6.304
6.221
6.13
6.033
5.93
7.144
7.141
7.136
7.13
7.122
7.112
7.101
7.087
7.072
7.055
7.036
7.015
6.992
6.967
6.94
6.911
6.879
6.844
6.807
6.767
6.724
6.677
6.626
6.572
6.513
6.448
6.379
6.303
6.221
6.133
6.038
5.939
7.132
7.129
7.125
7.118
7.11
7.101
7.089
7.076
7.061
7.044
7.025
7.004
6.981
6.956
6.929
6.9
6.868
6.834
6.797
6.757
6.715
6.668
6.618
6.564
6.506
6.443
6.374
6.301
6.221
6.136
6.045
5.951
7.093
7.09
7.085
7.078
7.07
7.059
7.047
7.032
7.016
6.998
6.977
6.955
6.93
6.903
6.874
6.842
6.808
6.771
6.731
6.688
6.642
6.591
6.537
6.479
6.415
6.347
6.273
6.194
6.108
6.017
5.92
5.819
7.089
7.086
7.081
7.075
7.066
7.055
7.043
7.029
7.012
6.994
6.974
6.951
6.927
6.9
6.871
6.839
6.805
6.768
6.728
6.685
6.639
6.589
6.535
6.477
6.414
6.346
6.273
6.194
6.109
6.019
5.924
5.825
7.082
7.079
7.074
7.067
7.059
7.048
7.036
7.021
7.005
6.987
6.967
6.945
6.92
6.893
6.864
6.833
6.799
6.762
6.723
6.68
6.634
6.584
6.531
6.473
6.411
6.344
6.272
6.194
6.111
6.023
5.93
5.834
7.071
7.068
7.063
7.056
7.048
7.037
7.025
7.011
6.995
6.976
6.956
6.934
6.91
6.883
6.855
6.823
6.79
6.753
6.714
6.672
6.626
6.577
6.524
6.467
6.406
6.34
6.27
6.194
6.114
6.028
5.939
5.847
7.025
7.022
7.016
7.009
7
6.988
6.975
6.96
6.942
6.923
6.901
6.877
6.851
6.823
6.791
6.758
6.721
6.682
6.64
6.594
6.545
6.492
6.436
6.374
6.309
6.239
6.163
6.083
5.998
5.908
5.814
5.718
7.021
7.018
7.013
7.005
6.996
6.985
6.972
6.956
6.939
6.919
6.898
6.874
6.848
6.819
6.789
6.755
6.719
6.68
6.637
6.592
6.543
6.49
6.434
6.373
6.308
6.238
6.163
6.084
5.999
5.911
5.818
5.723
7.014
7.011
7.006
6.998
6.989
6.978
6.965
6.95
6.932
6.913
6.891
6.868
6.842
6.813
6.783
6.749
6.713
6.674
6.632
6.587
6.539
6.486
6.43
6.37
6.306
6.237
6.163
6.085
6.002
5.916
5.825
5.733
7.004
7
6.995
6.988
6.979
6.968
6.955
6.939
6.922
6.903
6.882
6.858
6.832
6.804
6.774
6.741
6.705
6.666
6.625
6.58
6.532
6.481
6.425
6.366
6.303
6.235
6.163
6.087
6.006
5.922
5.835
5.746
6.952
6.948
6.942
6.934
6.924
6.912
6.898
6.882
6.864
6.843
6.82
6.795
6.767
6.737
6.704
6.668
6.63
6.589
6.544
6.496
6.445
6.39
6.331
6.268
6.201
6.13
6.054
5.974
5.889
5.802
5.711
5.62
6.948
6.945
6.939
6.931
6.921
6.909
6.895
6.879
6.86
6.84
6.817
6.792
6.764
6.734
6.701
6.666
6.628
6.586
6.542
6.494
6.443
6.389
6.33
6.268
6.201
6.13
6.054
5.975
5.892
5.805
5.715
5.625
6.942
6.938
6.932
6.925
6.915
6.903
6.889
6.873
6.854
6.834
6.811
6.786
6.759
6.729
6.696
6.661
6.623
6.582
6.538
6.491
6.44
6.386
6.328
6.266
6.2
6.13
6.056
5.977
5.895
5.81
5.723
5.635
6.932
6.928
6.922
6.915
6.905
6.893
6.879
6.863
6.845
6.825
6.802
6.777
6.75
6.72
6.688
6.653
6.616
6.575
6.531
6.485
6.435
6.381
6.324
6.263
6.198
6.13
6.057
5.981
5.901
5.818
5.734
5.648
6.874
6.87
6.864
6.856
6.845
6.832
6.817
6.8
6.781
6.759
6.735
6.708
6.679
6.647
6.613
6.575
6.535
6.492
6.446
6.396
6.343
6.286
6.226
6.162
6.093
6.021
5.946
5.866
5.784
5.698
5.612
5.524
6.871
6.867
6.861
6.853
6.842
6.829
6.814
6.797
6.778
6.756
6.732
6.705
6.676
6.645
6.61
6.573
6.533
6.49
6.444
6.394
6.342
6.285
6.225
6.161
6.093
6.022
5.947
5.868
5.786
5.702
5.616
5.53
6.865
6.861
6.855
6.847
6.836
6.823
6.809
6.792
6.772
6.751
6.727
6.7
6.671
6.64
6.606
6.569
6.529
6.486
6.44
6.391
6.339
6.283
6.223
6.16
6.093
6.023
5.949
5.871
5.791
5.708
5.624
5.539
6.856
6.852
6.846
6.837
6.827
6.814
6.8
6.783
6.764
6.742
6.718
6.692
6.664
6.632
6.599
6.562
6.523
6.48
6.435
6.387
6.335
6.28
6.221
6.159
6.093
6.024
5.951
5.875
5.797
5.716
5.635
5.553
6.793
6.789
6.783
6.774
6.763
6.749
6.733
6.715
6.695
6.672
6.646
6.618
6.588
6.555
6.519
6.48
6.438
6.393
6.345
6.294
6.239
6.181
6.12
6.055
5.986
5.914
5.839
5.761
5.68
5.598
5.515
5.432
6.791
6.786
6.78
6.771
6.76
6.746
6.731
6.713
6.692
6.669
6.644
6.616
6.586
6.553
6.517
6.478
6.436
6.392
6.344
6.293
6.238
6.181
6.119
6.055
5.987
5.915
5.84
5.763
5.683
5.601
5.519
5.437
6.785
6.781
6.774
6.765
6.754
6.741
6.725
6.707
6.687
6.664
6.639
6.611
6.581
6.548
6.513
6.474
6.433
6.388
6.341
6.29
6.237
6.179
6.119
6.055
5.987
5.917
5.843
5.767
5.688
5.608
5.527
5.447
6.776
6.772
6.765
6.757
6.746
6.733
6.717
6.699
6.679
6.657
6.632
6.604
6.574
6.542
6.506
6.468
6.427
6.384
6.337
6.287
6.234
6.177
6.117
6.054
5.988
5.919
5.847
5.772
5.695
5.617
5.538
5.46
6.71
6.706
6.699
6.689
6.677
6.663
6.647
6.628
6.606
6.582
6.556
6.527
6.495
6.46
6.423
6.383
6.339
6.293
6.244
6.191
6.135
6.077
6.014
5.949
5.88
5.809
5.734
5.658
5.579
5.5
5.42
5.342
6.707
6.703
6.696
6.687
6.675
6.661
6.644
6.625
6.604
6.58
6.554
6.525
6.493
6.458
6.421
6.381
6.338
6.292
6.243
6.19
6.135
6.076
6.014
5.949
5.881
5.81
5.736
5.66
5.582
5.503
5.424
5.347
6.702
6.698
6.691
6.681
6.67
6.656
6.639
6.621
6.599
6.576
6.549
6.52
6.489
6.455
6.418
6.378
6.335
6.289
6.241
6.189
6.134
6.075
6.014
5.95
5.882
5.812
5.739
5.664
5.588
5.51
5.433
5.356
6.694
6.69
6.683
6.674
6.662
6.648
6.632
6.613
6.592
6.569
6.543
6.514
6.483
6.449
6.412
6.373
6.331
6.285
6.237
6.186
6.132
6.074
6.014
5.95
5.884
5.815
5.744
5.67
5.595
5.52
5.444
5.37
6.625
6.62
6.613
6.603
6.591
6.576
6.559
6.539
6.516
6.491
6.464
6.433
6.4
6.365
6.326
6.284
6.24
6.192
6.142
6.088
6.032
5.972
5.909
5.844
5.775
5.705
5.631
5.557
5.48
5.404
5.328
5.253
6.622
6.618
6.61
6.601
6.588
6.574
6.556
6.537
6.514
6.489
6.462
6.432
6.399
6.363
6.324
6.283
6.239
6.191
6.141
6.088
6.031
5.972
5.91
5.844
5.776
5.706
5.633
5.559
5.483
5.408
5.332
5.258
6.618
6.613
6.606
6.596
6.584
6.569
6.552
6.532
6.51
6.485
6.458
6.428
6.395
6.36
6.322
6.28
6.236
6.19
6.14
6.087
6.031
5.972
5.91
5.846
5.778
5.709
5.637
5.564
5.489
5.414
5.34
5.267
6.61
6.605
6.598
6.589
6.576
6.562
6.545
6.526
6.504
6.479
6.452
6.422
6.39
6.355
6.317
6.276
6.233
6.186
6.137
6.085
6.03
5.972
5.911
5.847
5.781
5.713
5.642
5.57
5.497
5.424
5.352
5.281
6.538
6.534
6.526
6.516
6.503
6.487
6.469
6.449
6.425
6.399
6.371
6.339
6.305
6.268
6.229
6.186
6.14
6.092
6.04
5.986
5.929
5.869
5.806
5.74
5.672
5.602
5.53
5.457
5.384
5.31
5.237
5.166
6.536
6.531
6.524
6.513
6.501
6.485
6.467
6.447
6.424
6.398
6.369
6.338
6.304
6.267
6.227
6.185
6.139
6.091
6.04
5.986
5.929
5.869
5.806
5.741
5.674
5.604
5.533
5.46
5.387
5.314
5.241
5.171
6.532
6.527
6.519
6.509
6.496
6.481
6.463
6.443
6.42
6.394
6.366
6.335
6.301
6.264
6.225
6.183
6.138
6.09
6.039
5.985
5.929
5.869
5.807
5.743
5.676
5.607
5.537
5.465
5.393
5.321
5.249
5.18
6.525
6.52
6.512
6.502
6.49
6.475
6.457
6.437
6.414
6.389
6.36
6.33
6.296
6.26
6.221
6.179
6.135
6.087
6.037
5.984
5.928
5.87
5.809
5.745
5.68
5.612
5.543
5.472
5.401
5.331
5.261
5.193
6.451
6.446
6.438
6.428
6.414
6.398
6.379
6.358
6.334
6.307
6.278
6.245
6.21
6.172
6.131
6.087
6.041
5.992
5.939
5.884
5.826
5.766
5.703
5.638
5.571
5.502
5.431
5.36
5.289
5.218
5.148
5.08
6.449
6.444
6.436
6.426
6.412
6.396
6.378
6.356
6.332
6.306
6.276
6.244
6.209
6.171
6.13
6.087
6.04
5.991
5.939
5.884
5.827
5.767
5.704
5.639
5.572
5.503
5.434
5.363
5.292
5.221
5.152
5.085
6.445
6.44
6.432
6.422
6.408
6.392
6.374
6.353
6.329
6.302
6.273
6.241
6.206
6.169
6.128
6.085
6.039
5.99
5.939
5.884
5.827
5.768
5.706
5.641
5.575
5.507
5.438
5.368
5.298
5.228
5.16
5.094
6.439
6.434
6.426
6.416
6.402
6.387
6.368
6.347
6.324
6.298
6.269
6.237
6.202
6.165
6.125
6.082
6.037
5.989
5.938
5.884
5.828
5.769
5.708
5.644
5.579
5.512
5.444
5.376
5.307
5.239
5.172
5.107
6.364
6.359
6.35
6.339
6.326
6.309
6.29
6.268
6.243
6.215
6.184
6.151
6.115
6.076
6.034
5.99
5.942
5.892
5.839
5.783
5.725
5.665
5.602
5.537
5.471
5.403
5.334
5.264
5.195
5.126
5.059
4.995
6.362
6.357
6.349
6.338
6.324
6.307
6.288
6.266
6.241
6.214
6.183
6.15
6.114
6.075
6.034
5.989
5.942
5.892
5.839
5.784
5.726
5.666
5.603
5.538
5.472
5.405
5.336
5.267
5.198
5.13
5.064
5
6.359
6.353
6.345
6.334
6.32
6.304
6.285
6.263
6.238
6.211
6.181
6.148
6.112
6.073
6.032
5.988
5.941
5.891
5.839
5.784
5.727
5.667
5.605
5.541
5.476
5.409
5.341
5.273
5.204
5.137
5.072
5.008
6.353
6.348
6.339
6.329
6.315
6.299
6.28
6.258
6.234
6.207
6.177
6.144
6.109
6.071
6.03
5.986
5.94
5.891
5.839
5.785
5.728
5.669
5.608
5.545
5.48
5.414
5.348
5.281
5.214
5.148
5.083
5.021
6.277
6.272
6.263
6.252
6.237
6.22
6.2
6.177
6.152
6.123
6.092
6.058
6.021
5.981
5.938
5.893
5.844
5.793
5.74
5.684
5.625
5.565
5.502
5.438
5.372
5.305
5.237
5.17
5.102
5.036
4.972
4.91
6.276
6.27
6.261
6.25
6.236
6.219
6.199
6.176
6.15
6.122
6.091
6.057
6.02
5.98
5.937
5.892
5.844
5.793
5.74
5.684
5.626
5.566
5.503
5.439
5.374
5.307
5.24
5.173
5.106
5.04
4.976
4.915
6.272
6.267
6.258
6.247
6.233
6.216
6.196
6.173
6.148
6.12
6.089
6.055
6.018
5.979
5.936
5.891
5.844
5.793
5.74
5.685
5.627
5.568
5.506
5.442
5.377
5.312
5.245
5.178
5.112
5.047
4.984
4.924
6.267
6.262
6.253
6.242
6.228
6.211
6.191
6.169
6.144
6.116
6.085
6.052
6.016
5.976
5.935
5.89
5.843
5.793
5.741
5.686
5.629
5.57
5.509
5.447
5.383
5.318
5.252
5.187
5.122
5.058
4.996
4.936
6.191
6.185
6.176
6.164
6.15
6.132
6.111
6.088
6.061
6.032
6
5.965
5.927
5.886
5.843
5.796
5.747
5.696
5.642
5.585
5.527
5.466
5.404
5.34
5.275
5.209
5.142
5.076
5.011
4.947
4.885
4.826
6.189
6.184
6.175
6.163
6.148
6.131
6.11
6.087
6.06
6.031
5.999
5.964
5.926
5.886
5.842
5.796
5.747
5.696
5.642
5.586
5.528
5.467
5.405
5.341
5.277
5.211
5.145
5.079
5.014
4.951
4.889
4.83
6.186
6.181
6.172
6.16
6.145
6.128
6.108
6.084
6.058
6.029
5.997
5.963
5.925
5.885
5.842
5.796
5.747
5.696
5.643
5.587
5.529
5.47
5.408
5.345
5.281
5.216
5.15
5.085
5.021
4.958
4.897
4.839
6.182
6.176
6.167
6.156
6.141
6.124
6.104
6.081
6.055
6.026
5.995
5.96
5.923
5.883
5.841
5.795
5.747
5.697
5.644
5.589
5.532
5.473
5.412
5.35
5.287
5.223
5.158
5.094
5.031
4.969
4.909
4.852
6.105
6.099
6.09
6.078
6.063
6.045
6.023
5.999
5.972
5.942
5.909
5.873
5.834
5.793
5.748
5.701
5.652
5.599
5.545
5.488
5.429
5.369
5.306
5.243
5.179
5.114
5.048
4.984
4.92
4.858
4.798
4.741
6.104
6.098
6.089
6.077
6.062
6.043
6.022
5.998
5.971
5.941
5.908
5.873
5.834
5.792
5.748
5.701
5.652
5.6
5.546
5.489
5.43
5.37
5.308
5.245
5.181
5.116
5.051
4.987
4.924
4.862
4.802
4.746
6.101
6.095
6.086
6.074
6.059
6.041
6.02
5.996
5.969
5.94
5.907
5.871
5.833
5.792
5.748
5.701
5.652
5.601
5.547
5.491
5.433
5.373
5.311
5.249
5.185
5.121
5.057
4.993
4.93
4.869
4.81
4.755
6.097
6.091
6.082
6.07
6.055
6.037
6.017
5.993
5.966
5.937
5.905
5.87
5.832
5.791
5.747
5.701
5.653
5.602
5.549
5.493
5.436
5.377
5.316
5.254
5.191
5.128
5.065
5.002
4.94
4.88
4.822
4.767
7.313
7.312
7.309
7.304
7.298
7.291
7.282
7.272
7.261
7.248
7.234
7.218
7.201
7.182
7.162
7.141
7.118
7.093
7.067
7.039
7.009
6.977
6.943
6.907
6.869
6.828
6.783
6.735
6.683
6.626
6.563
6.491
7.29
7.289
7.285
7.281
7.275
7.268
7.259
7.249
7.238
7.225
7.211
7.195
7.178
7.159
7.139
7.118
7.094
7.07
7.043
7.015
6.985
6.952
6.918
6.881
6.842
6.8
6.755
6.706
6.653
6.596
6.532
6.463
7.262
7.26
7.257
7.253
7.247
7.24
7.231
7.221
7.21
7.197
7.183
7.167
7.15
7.131
7.111
7.09
7.067
7.042
7.015
6.986
6.956
6.924
6.889
6.852
6.812
6.77
6.724
6.675
6.622
6.565
6.503
6.436
7.228
7.227
7.224
7.219
7.214
7.206
7.198
7.188
7.177
7.164
7.15
7.134
7.117
7.099
7.079
7.057
7.034
7.009
6.982
6.954
6.923
6.891
6.856
6.818
6.778
6.736
6.69
6.641
6.589
6.533
6.473
6.41
7.19
7.188
7.185
7.181
7.175
7.168
7.159
7.15
7.138
7.126
7.112
7.096
7.079
7.061
7.041
7.02
6.996
6.972
6.945
6.916
6.886
6.853
6.819
6.781
6.742
6.699
6.654
6.606
6.555
6.501
6.444
6.384
7.145
7.144
7.141
7.136
7.131
7.124
7.115
7.105
7.094
7.082
7.068
7.053
7.036
7.018
6.998
6.977
6.954
6.929
6.903
6.875
6.844
6.812
6.778
6.741
6.702
6.66
6.616
6.569
6.52
6.468
6.413
6.357
7.095
7.093
7.09
7.086
7.08
7.073
7.065
7.056
7.045
7.032
7.019
7.004
6.987
6.969
6.95
6.929
6.906
6.882
6.856
6.828
6.798
6.766
6.733
6.697
6.658
6.618
6.575
6.53
6.482
6.433
6.382
6.33
7.038
7.036
7.033
7.029
7.024
7.017
7.009
6.999
6.989
6.976
6.963
6.948
6.932
6.914
6.895
6.875
6.852
6.829
6.803
6.776
6.747
6.716
6.683
6.648
6.611
6.572
6.531
6.488
6.443
6.397
6.349
6.301
6.974
6.973
6.97
6.966
6.96
6.954
6.946
6.936
6.926
6.914
6.901
6.886
6.87
6.853
6.834
6.814
6.793
6.77
6.745
6.718
6.69
6.66
6.629
6.595
6.56
6.522
6.483
6.443
6.401
6.357
6.314
6.269
6.903
6.902
6.899
6.895
6.89
6.883
6.875
6.866
6.856
6.844
6.831
6.817
6.802
6.785
6.767
6.747
6.726
6.704
6.68
6.654
6.627
6.599
6.568
6.537
6.503
6.468
6.431
6.394
6.355
6.315
6.275
6.235
6.824
6.823
6.82
6.816
6.811
6.805
6.797
6.788
6.778
6.767
6.754
6.74
6.725
6.709
6.691
6.672
6.652
6.631
6.608
6.583
6.558
6.53
6.502
6.472
6.44
6.408
6.374
6.339
6.304
6.268
6.231
6.195
6.737
6.736
6.733
6.73
6.725
6.718
6.711
6.702
6.692
6.681
6.669
6.655
6.641
6.625
6.608
6.589
6.57
6.549
6.527
6.504
6.48
6.454
6.427
6.4
6.371
6.341
6.31
6.278
6.246
6.214
6.182
6.151
6.642
6.641
6.638
6.635
6.63
6.623
6.616
6.607
6.598
6.587
6.575
6.561
6.547
6.532
6.515
6.497
6.479
6.459
6.438
6.416
6.393
6.369
6.345
6.319
6.293
6.265
6.238
6.21
6.182
6.154
6.126
6.099
6.541
6.54
6.537
6.534
6.529
6.522
6.515
6.507
6.497
6.486
6.474
6.461
6.447
6.432
6.416
6.399
6.381
6.362
6.342
6.321
6.299
6.277
6.254
6.231
6.207
6.183
6.158
6.134
6.11
6.086
6.062
6.04
6.452
6.451
6.449
6.445
6.44
6.434
6.427
6.418
6.408
6.398
6.386
6.373
6.359
6.344
6.328
6.311
6.293
6.275
6.256
6.236
6.215
6.194
6.173
6.151
6.129
6.107
6.085
6.063
6.042
6.022
6.002
5.983
7.303
7.302
7.299
7.294
7.288
7.28
7.272
7.261
7.25
7.237
7.222
7.206
7.189
7.17
7.15
7.128
7.104
7.079
7.052
7.024
6.993
6.96
6.925
6.888
6.848
6.805
6.758
6.708
6.652
6.59
6.521
6.442
7.28
7.279
7.275
7.271
7.265
7.257
7.249
7.238
7.227
7.214
7.199
7.184
7.166
7.147
7.127
7.105
7.081
7.056
7.029
7
6.969
6.936
6.901
6.863
6.823
6.779
6.732
6.681
6.625
6.564
6.497
6.423
7.252
7.251
7.247
7.243
7.237
7.23
7.221
7.211
7.199
7.186
7.172
7.156
7.139
7.12
7.099
7.077
7.054
7.028
7.001
6.972
6.941
6.908
6.872
6.834
6.793
6.75
6.702
6.651
6.596
6.537
6.472
6.402
7.219
7.217
7.214
7.21
7.204
7.197
7.188
7.178
7.166
7.154
7.139
7.123
7.106
7.087
7.067
7.045
7.022
6.996
6.969
6.94
6.909
6.876
6.84
6.802
6.761
6.717
6.67
6.62
6.566
6.508
6.447
6.381
7.18
7.179
7.176
7.171
7.166
7.158
7.15
7.14
7.128
7.116
7.101
7.086
7.069
7.05
7.03
7.008
6.985
6.959
6.932
6.903
6.872
6.839
6.804
6.766
6.725
6.682
6.636
6.587
6.534
6.479
6.42
6.359
7.136
7.135
7.132
7.127
7.122
7.114
7.106
7.096
7.085
7.072
7.058
7.043
7.026
7.007
6.987
6.966
6.943
6.918
6.891
6.862
6.831
6.799
6.764
6.726
6.686
6.644
6.599
6.551
6.501
6.448
6.393
6.336
7.086
7.085
7.082
7.077
7.072
7.065
7.056
7.046
7.035
7.023
7.009
6.994
6.977
6.959
6.939
6.918
6.895
6.871
6.844
6.816
6.786
6.754
6.719
6.683
6.644
6.603
6.559
6.514
6.465
6.415
6.364
6.311
7.03
7.028
7.025
7.021
7.015
7.008
7
6.991
6.98
6.968
6.954
6.939
6.923
6.905
6.886
6.865
6.842
6.818
6.792
6.765
6.735
6.704
6.671
6.635
6.598
6.558
6.517
6.473
6.428
6.381
6.332
6.284
6.966
6.965
6.962
6.958
6.952
6.946
6.938
6.928
6.918
6.906
6.892
6.878
6.862
6.844
6.825
6.805
6.783
6.76
6.735
6.708
6.68
6.649
6.617
6.583
6.548
6.51
6.47
6.429
6.387
6.343
6.299
6.254
6.896
6.894
6.892
6.887
6.882
6.876
6.868
6.859
6.848
6.836
6.823
6.809
6.794
6.777
6.758
6.738
6.717
6.695
6.671
6.645
6.618
6.589
6.558
6.526
6.492
6.457
6.42
6.381
6.342
6.302
6.261
6.221
6.818
6.816
6.813
6.81
6.804
6.798
6.79
6.781
6.771
6.76
6.747
6.733
6.718
6.701
6.684
6.664
6.644
6.622
6.599
6.575
6.549
6.521
6.492
6.462
6.431
6.398
6.364
6.328
6.293
6.256
6.22
6.183
6.731
6.73
6.727
6.723
6.718
6.712
6.704
6.696
6.686
6.674
6.662
6.649
6.634
6.618
6.601
6.582
6.563
6.542
6.52
6.496
6.472
6.446
6.419
6.391
6.362
6.332
6.301
6.269
6.237
6.204
6.172
6.14
6.637
6.635
6.633
6.629
6.624
6.618
6.61
6.602
6.592
6.581
6.569
6.555
6.541
6.526
6.509
6.491
6.472
6.452
6.431
6.409
6.386
6.362
6.337
6.312
6.285
6.258
6.23
6.202
6.174
6.145
6.117
6.09
6.536
6.535
6.532
6.529
6.524
6.517
6.51
6.502
6.492
6.481
6.469
6.456
6.442
6.427
6.41
6.393
6.375
6.356
6.336
6.315
6.294
6.271
6.248
6.225
6.201
6.176
6.152
6.127
6.103
6.079
6.055
6.033
6.448
6.447
6.444
6.441
6.436
6.429
6.422
6.414
6.404
6.393
6.381
6.368
6.354
6.339
6.323
6.306
6.289
6.27
6.251
6.231
6.21
6.189
6.167
6.146
6.124
6.102
6.08
6.058
6.037
6.016
5.996
5.978
7.283
7.282
7.278
7.274
7.267
7.26
7.251
7.24
7.228
7.215
7.2
7.183
7.165
7.146
7.125
7.102
7.077
7.051
7.023
6.993
6.961
6.926
6.889
6.849
6.806
6.76
6.709
6.654
6.593
6.525
6.449
6.364
7.261
7.259
7.256
7.251
7.245
7.237
7.228
7.217
7.206
7.192
7.177
7.161
7.143
7.123
7.102
7.08
7.055
7.029
7.001
6.97
6.938
6.903
6.866
6.826
6.783
6.736
6.686
6.631
6.571
6.505
6.433
6.354
7.233
7.231
7.228
7.223
7.217
7.21
7.201
7.19
7.178
7.165
7.15
7.134
7.116
7.097
7.075
7.053
7.028
7.002
6.974
6.943
6.911
6.876
6.839
6.799
6.756
6.71
6.66
6.606
6.547
6.484
6.416
6.342
7.2
7.199
7.195
7.191
7.185
7.177
7.168
7.158
7.146
7.133
7.118
7.102
7.084
7.065
7.044
7.021
6.997
6.971
6.943
6.912
6.88
6.845
6.808
6.769
6.726
6.68
6.631
6.578
6.521
6.461
6.396
6.328
7.162
7.161
7.158
7.153
7.147
7.139
7.131
7.12
7.109
7.096
7.081
7.065
7.047
7.028
7.007
6.985
6.961
6.935
6.907
6.877
6.845
6.811
6.774
6.734
6.692
6.647
6.599
6.548
6.494
6.436
6.375
6.312
7.119
7.117
7.114
7.109
7.103
7.096
7.087
7.077
7.066
7.053
7.038
7.023
7.005
6.986
6.966
6.944
6.92
6.894
6.867
6.837
6.805
6.772
6.735
6.697
6.656
6.612
6.565
6.516
6.464
6.409
6.353
6.294
7.069
7.068
7.065
7.06
7.054
7.047
7.038
7.029
7.017
7.004
6.99
6.975
6.958
6.939
6.919
6.897
6.874
6.848
6.821
6.792
6.761
6.728
6.693
6.655
6.616
6.573
6.529
6.481
6.432
6.381
6.328
6.274
7.013
7.012
7.009
7.004
6.999
6.992
6.983
6.974
6.962
6.95
6.936
6.921
6.904
6.886
6.866
6.845
6.822
6.797
6.771
6.743
6.712
6.68
6.646
6.61
6.572
6.531
6.488
6.444
6.397
6.349
6.3
6.251
6.951
6.949
6.947
6.942
6.937
6.93
6.922
6.912
6.901
6.889
6.875
6.86
6.844
6.826
6.807
6.786
6.764
6.74
6.714
6.687
6.658
6.627
6.595
6.56
6.523
6.485
6.445
6.403
6.359
6.315
6.27
6.224
6.881
6.88
6.877
6.873
6.867
6.861
6.853
6.843
6.833
6.821
6.808
6.793
6.777
6.76
6.741
6.721
6.7
6.676
6.652
6.626
6.598
6.568
6.537
6.504
6.47
6.434
6.396
6.357
6.317
6.277
6.236
6.195
6.804
6.803
6.8
6.796
6.791
6.784
6.776
6.767
6.757
6.745
6.732
6.718
6.703
6.686
6.668
6.649
6.628
6.606
6.582
6.557
6.531
6.503
6.474
6.443
6.411
6.377
6.343
6.307
6.271
6.234
6.197
6.16
6.719
6.718
6.715
6.711
6.706
6.699
6.692
6.683
6.673
6.661
6.649
6.635
6.62
6.604
6.586
6.568
6.548
6.527
6.504
6.481
6.456
6.43
6.402
6.374
6.344
6.314
6.282
6.25
6.218
6.185
6.152
6.12
6.626
6.624
6.622
6.618
6.613
6.606
6.599
6.59
6.58
6.569
6.557
6.543
6.529
6.513
6.496
6.478
6.459
6.439
6.418
6.396
6.372
6.348
6.323
6.297
6.27
6.242
6.214
6.186
6.157
6.129
6.101
6.073
6.526
6.525
6.522
6.519
6.514
6.507
6.5
6.491
6.482
6.471
6.459
6.446
6.431
6.416
6.4
6.382
6.364
6.345
6.325
6.304
6.282
6.259
6.236
6.212
6.188
6.164
6.139
6.114
6.09
6.065
6.042
6.019
6.439
6.438
6.436
6.432
6.427
6.421
6.413
6.405
6.395
6.384
6.372
6.359
6.345
6.33
6.314
6.297
6.279
6.26
6.241
6.221
6.2
6.179
6.157
6.135
6.113
6.091
6.069
6.047
6.026
6.005
5.986
5.967
7.254
7.252
7.249
7.244
7.237
7.229
7.22
7.209
7.196
7.182
7.166
7.149
7.13
7.11
7.087
7.063
7.038
7.01
6.98
6.948
6.913
6.876
6.837
6.794
6.747
6.696
6.641
6.581
6.514
6.44
6.359
6.27
7.232
7.23
7.227
7.222
7.215
7.207
7.198
7.187
7.174
7.16
7.144
7.127
7.109
7.088
7.066
7.042
7.016
6.988
6.959
6.927
6.892
6.855
6.815
6.773
6.726
6.676
6.622
6.563
6.498
6.428
6.351
6.269
7.205
7.203
7.2
7.195
7.188
7.18
7.171
7.16
7.148
7.134
7.118
7.101
7.082
7.062
7.04
7.016
6.991
6.963
6.933
6.901
6.867
6.83
6.791
6.748
6.702
6.653
6.6
6.542
6.48
6.413
6.341
6.265
7.173
7.171
7.168
7.163
7.156
7.148
7.139
7.128
7.116
7.102
7.087
7.07
7.052
7.031
7.01
6.986
6.96
6.933
6.903
6.872
6.838
6.801
6.762
6.72
6.675
6.627
6.575
6.519
6.46
6.396
6.329
6.259
7.136
7.134
7.13
7.126
7.119
7.112
7.102
7.092
7.08
7.066
7.051
7.034
7.016
6.996
6.974
6.951
6.926
6.899
6.869
6.838
6.805
6.769
6.73
6.689
6.645
6.598
6.547
6.494
6.437
6.377
6.314
6.249
7.093
7.091
7.088
7.083
7.077
7.069
7.06
7.05
7.038
7.024
7.009
6.993
6.975
6.955
6.934
6.911
6.886
6.86
6.831
6.8
6.767
6.732
6.694
6.654
6.611
6.566
6.517
6.466
6.412
6.356
6.297
6.237
7.044
7.043
7.039
7.035
7.029
7.021
7.012
7.002
6.99
6.977
6.963
6.946
6.929
6.909
6.889
6.866
6.842
6.815
6.787
6.757
6.725
6.691
6.654
6.615
6.574
6.53
6.484
6.435
6.384
6.332
6.277
6.222
6.99
6.988
6.985
6.98
6.974
6.967
6.958
6.948
6.937
6.924
6.91
6.894
6.877
6.858
6.837
6.815
6.792
6.766
6.739
6.71
6.679
6.645
6.61
6.573
6.533
6.491
6.448
6.402
6.354
6.305
6.255
6.204
6.929
6.927
6.924
6.919
6.914
6.906
6.898
6.888
6.877
6.864
6.85
6.835
6.818
6.8
6.78
6.759
6.736
6.711
6.685
6.657
6.627
6.595
6.561
6.526
6.488
6.449
6.407
6.364
6.32
6.275
6.229
6.183
6.86
6.859
6.856
6.851
6.846
6.839
6.831
6.821
6.81
6.798
6.784
6.769
6.753
6.735
6.716
6.695
6.673
6.65
6.624
6.597
6.569
6.539
6.507
6.473
6.438
6.401
6.362
6.323
6.282
6.24
6.199
6.157
6.785
6.783
6.78
6.776
6.77
6.764
6.756
6.746
6.736
6.724
6.711
6.696
6.68
6.663
6.645
6.625
6.604
6.581
6.557
6.531
6.504
6.476
6.446
6.414
6.382
6.348
6.312
6.276
6.239
6.201
6.164
6.127
6.701
6.699
6.697
6.693
6.687
6.681
6.673
6.664
6.653
6.642
6.629
6.615
6.6
6.583
6.565
6.546
6.526
6.505
6.482
6.458
6.432
6.406
6.378
6.349
6.319
6.288
6.256
6.223
6.19
6.157
6.124
6.091
6.609
6.608
6.605
6.601
6.596
6.59
6.582
6.573
6.563
6.552
6.539
6.526
6.511
6.495
6.478
6.459
6.44
6.42
6.398
6.375
6.352
6.327
6.301
6.275
6.248
6.22
6.191
6.162
6.133
6.105
6.076
6.049
6.512
6.51
6.508
6.504
6.499
6.493
6.485
6.476
6.466
6.455
6.443
6.43
6.415
6.4
6.383
6.366
6.347
6.328
6.307
6.286
6.264
6.241
6.218
6.194
6.169
6.145
6.12
6.095
6.07
6.046
6.022
5.999
6.426
6.425
6.423
6.419
6.414
6.407
6.4
6.391
6.381
6.371
6.358
6.345
6.331
6.316
6.3
6.283
6.265
6.246
6.226
6.206
6.185
6.164
6.142
6.12
6.098
6.075
6.053
6.031
6.01
5.989
5.969
5.951
7.216
7.214
7.21
7.205
7.198
7.189
7.179
7.168
7.154
7.139
7.123
7.105
7.085
7.063
7.039
7.014
6.986
6.957
6.925
6.89
6.853
6.813
6.77
6.724
6.673
6.619
6.559
6.494
6.423
6.345
6.261
6.17
7.194
7.192
7.189
7.183
7.176
7.168
7.158
7.146
7.133
7.118
7.102
7.084
7.064
7.042
7.019
6.994
6.966
6.937
6.905
6.871
6.834
6.794
6.752
6.706
6.656
6.602
6.544
6.481
6.412
6.338
6.259
6.175
7.168
7.166
7.162
7.157
7.15
7.142
7.132
7.121
7.107
7.093
7.077
7.059
7.039
7.018
6.994
6.969
6.942
6.913
6.881
6.847
6.811
6.771
6.729
6.684
6.635
6.583
6.526
6.465
6.4
6.33
6.255
6.178
7.137
7.135
7.131
7.126
7.119
7.111
7.101
7.09
7.077
7.063
7.047
7.029
7.009
6.988
6.965
6.94
6.913
6.884
6.853
6.82
6.784
6.745
6.704
6.659
6.612
6.56
6.506
6.447
6.385
6.319
6.249
6.178
7.101
7.099
7.095
7.09
7.083
7.075
7.066
7.054
7.042
7.028
7.012
6.994
6.975
6.954
6.931
6.907
6.88
6.852
6.821
6.788
6.753
6.715
6.674
6.631
6.585
6.535
6.483
6.427
6.368
6.305
6.241
6.175
7.059
7.057
7.054
7.049
7.042
7.034
7.025
7.014
7.001
6.987
6.972
6.954
6.936
6.915
6.893
6.869
6.843
6.815
6.785
6.752
6.718
6.681
6.642
6.6
6.555
6.507
6.457
6.404
6.348
6.29
6.23
6.169
7.012
7.01
7.007
7.002
6.995
6.988
6.978
6.967
6.955
6.942
6.926
6.909
6.891
6.871
6.849
6.826
6.8
6.773
6.744
6.712
6.679
6.643
6.605
6.564
6.521
6.476
6.428
6.378
6.325
6.271
6.216
6.159
6.959
6.957
6.954
6.949
6.943
6.935
6.926
6.915
6.903
6.89
6.875
6.859
6.841
6.821
6.8
6.777
6.752
6.726
6.698
6.667
6.635
6.601
6.564
6.525
6.484
6.441
6.396
6.349
6.3
6.249
6.198
6.147
6.899
6.897
6.894
6.889
6.883
6.876
6.867
6.857
6.845
6.832
6.818
6.802
6.784
6.765
6.745
6.723
6.699
6.673
6.646
6.617
6.586
6.553
6.518
6.481
6.443
6.402
6.36
6.316
6.27
6.224
6.177
6.131
6.833
6.831
6.828
6.823
6.817
6.81
6.802
6.792
6.78
6.768
6.754
6.738
6.721
6.703
6.683
6.662
6.639
6.615
6.588
6.561
6.531
6.5
6.467
6.433
6.396
6.358
6.319
6.279
6.237
6.195
6.152
6.11
6.759
6.757
6.754
6.75
6.744
6.737
6.729
6.719
6.708
6.696
6.682
6.667
6.651
6.634
6.614
6.594
6.572
6.549
6.524
6.498
6.47
6.441
6.41
6.378
6.344
6.309
6.273
6.236
6.199
6.16
6.122
6.085
6.677
6.676
6.673
6.669
6.663
6.656
6.648
6.639
6.628
6.616
6.603
6.589
6.573
6.556
6.538
6.518
6.498
6.475
6.452
6.427
6.401
6.374
6.346
6.316
6.285
6.254
6.221
6.188
6.154
6.12
6.087
6.054
6.588
6.586
6.583
6.579
6.574
6.567
6.56
6.551
6.54
6.529
6.516
6.502
6.487
6.471
6.453
6.435
6.415
6.394
6.372
6.349
6.325
6.299
6.273
6.246
6.219
6.19
6.161
6.132
6.103
6.074
6.045
6.017
6.493
6.491
6.489
6.485
6.479
6.473
6.465
6.457
6.446
6.435
6.423
6.409
6.395
6.379
6.362
6.344
6.325
6.306
6.285
6.263
6.241
6.218
6.194
6.17
6.145
6.12
6.095
6.069
6.044
6.02
5.996
5.973
6.409
6.408
6.405
6.401
6.396
6.39
6.382
6.374
6.364
6.353
6.34
6.327
6.313
6.297
6.281
6.264
6.246
6.227
6.207
6.186
6.165
6.144
6.122
6.1
6.077
6.055
6.033
6.011
5.989
5.968
5.948
5.929
7.17
7.167
7.163
7.158
7.15
7.141
7.13
7.118
7.104
7.088
7.07
7.051
7.03
7.007
6.982
6.954
6.925
6.893
6.859
6.822