/*--------------------------------*- C++ -*----------------------------------*\
  =========                 |
  \\      /  F ield         | OpenFOAM: The Open Source CFD Toolbox
   \\    /   O peration     | Website:  https://openfoam.org
    \\  /    A nd           | Version:  6
     \\/     M anipulation  |
\*---------------------------------------------------------------------------*/
FoamFile
{
    version     2.0;
    format      ascii;
    class       volScalarField;
    location    "10";
    object      Umag;
}
// * * * * * * * * * * * * * * * * * * * * * * * * * * * * * * * * * * * * * //

dimensions      [0 0 0 0 0 0 0];

internalField   nonuniform List<scalar> 
16128
(
5.316e-09
3.854e-08
1.145e-07
2.373e-07
4.089e-07
6.335e-07
9.17e-07
1.267e-06
1.692e-06
2.207e-06
2.828e-06
3.575e-06
4.479e-06
5.576e-06
6.917e-06
8.572e-06
1.064e-05
1.324e-05
1.658e-05
2.093e-05
2.67e-05
3.455e-05
4.548e-05
6.118e-05
8.455e-05
0.0001208
0.0001799
0.0002822
0.0004722
0.0008562
0.001699
0.004673
5.407e-09
3.858e-08
1.142e-07
2.366e-07
4.075e-07
6.312e-07
9.133e-07
1.261e-06
1.685e-06
2.196e-06
2.812e-06
3.553e-06
4.449e-06
5.534e-06
6.86e-06
8.494e-06
1.053e-05
1.309e-05
1.636e-05
2.062e-05
2.626e-05
3.389e-05
4.449e-05
5.966e-05
8.213e-05
0.0001168
0.0001732
0.0002707
0.0004519
0.0008198
0.001638
0.004588
5.531e-09
3.856e-08
1.137e-07
2.351e-07
4.047e-07
6.266e-07
9.061e-07
1.251e-06
1.669e-06
2.174e-06
2.782e-06
3.512e-06
4.391e-06
5.455e-06
6.751e-06
8.343e-06
1.032e-05
1.28e-05
1.595e-05
2.004e-05
2.541e-05
3.265e-05
4.262e-05
5.677e-05
7.754e-05
0.0001093
0.0001604
0.0002481
0.0004109
0.0007442
0.0015
0.004356
5.692e-09
3.849e-08
1.128e-07
2.33e-07
4.007e-07
6.198e-07
8.956e-07
1.235e-06
1.647e-06
2.143e-06
2.738e-06
3.451e-06
4.307e-06
5.34e-06
6.594e-06
8.127e-06
1.002e-05
1.238e-05
1.537e-05
1.921e-05
2.422e-05
3.09e-05
4.001e-05
5.276e-05
7.118e-05
9.886e-05
0.0001425
0.0002156
0.0003485
0.0006175
0.001246
0.003661
3.506e-08
1.021e-07
2.215e-07
4.114e-07
6.76e-07
1.022e-06
1.458e-06
1.996e-06
2.651e-06
3.442e-06
4.394e-06
5.541e-06
6.924e-06
8.602e-06
1.065e-05
1.317e-05
1.63e-05
2.025e-05
2.528e-05
3.18e-05
4.042e-05
5.201e-05
6.8e-05
9.063e-05
0.0001236
0.0001733
0.0002509
0.0003773
0.000592
0.0009742
0.001675
0.003124
3.52e-08
1.021e-07
2.21e-07
4.103e-07
6.738e-07
1.018e-06
1.453e-06
1.988e-06
2.639e-06
3.425e-06
4.37e-06
5.508e-06
6.879e-06
8.539e-06
1.056e-05
1.305e-05
1.614e-05
2.002e-05
2.496e-05
3.135e-05
3.976e-05
5.105e-05
6.656e-05
8.843e-05
0.0001202
0.0001678
0.000242
0.0003625
0.0005672
0.0009326
0.001609
0.003029
3.536e-08
1.021e-07
2.202e-07
4.08e-07
6.696e-07
1.011e-06
1.442e-06
1.972e-06
2.616e-06
3.392e-06
4.324e-06
5.444e-06
6.791e-06
8.418e-06
1.04e-05
1.282e-05
1.582e-05
1.958e-05
2.435e-05
3.048e-05
3.85e-05
4.922e-05
6.383e-05
8.428e-05
0.0001137
0.0001574
0.0002249
0.0003337
0.0005177
0.0008469
0.001465
0.002803
3.556e-08
1.019e-07
2.188e-07
4.047e-07
6.633e-07
1.001e-06
1.426e-06
1.948e-06
2.581e-06
3.343e-06
4.257e-06
5.35e-06
6.663e-06
8.244e-06
1.016e-05
1.249e-05
1.537e-05
1.895e-05
2.347e-05
2.924e-05
3.673e-05
4.664e-05
6.002e-05
7.849e-05
0.0001047
0.000143
0.0002011
0.0002927
0.0004446
0.000712
0.001214
0.002307
1.017e-07
2.078e-07
3.373e-07
5.365e-07
8.132e-07
1.175e-06
1.631e-06
2.193e-06
2.876e-06
3.7e-06
4.691e-06
5.882e-06
7.318e-06
9.055e-06
1.117e-05
1.377e-05
1.699e-05
2.102e-05
2.614e-05
3.274e-05
4.137e-05
5.29e-05
6.858e-05
9.04e-05
0.0001215
0.000167
0.0002354
0.0003408
0.0005073
0.000775
0.001204
0.001904
1.018e-07
2.077e-07
3.367e-07
5.352e-07
8.108e-07
1.171e-06
1.625e-06
2.184e-06
2.863e-06
3.682e-06
4.666e-06
5.848e-06
7.271e-06
8.991e-06
1.108e-05
1.365e-05
1.682e-05
2.079e-05
2.581e-05
3.228e-05
4.072e-05
5.194e-05
6.717e-05
8.829e-05
0.0001183
0.000162
0.0002274
0.0003281
0.0004868
0.0007423
0.001154
0.001832
1.018e-07
2.075e-07
3.356e-07
5.327e-07
8.062e-07
1.164e-06
1.613e-06
2.167e-06
2.838e-06
3.647e-06
4.618e-06
5.782e-06
7.18e-06
8.867e-06
1.091e-05
1.341e-05
1.65e-05
2.034e-05
2.519e-05
3.14e-05
3.947e-05
5.013e-05
6.451e-05
8.43e-05
0.0001122
0.0001525
0.0002122
0.0003034
0.0004465
0.0006764
0.001049
0.001674
1.019e-07
2.071e-07
3.341e-07
5.291e-07
7.995e-07
1.153e-06
1.596e-06
2.142e-06
2.803e-06
3.597e-06
4.548e-06
5.686e-06
7.048e-06
8.687e-06
1.067e-05
1.308e-05
1.604e-05
1.97e-05
2.431e-05
3.016e-05
3.77e-05
4.759e-05
6.078e-05
7.873e-05
0.0001037
0.0001392
0.0001911
0.0002688
0.0003885
0.0005777
0.0008818
0.001388
2.063e-07
3.704e-07
5.084e-07
7.093e-07
9.869e-07
1.35e-06
1.806e-06
2.368e-06
3.051e-06
3.874e-06
4.861e-06
6.046e-06
7.471e-06
9.189e-06
1.128e-05
1.383e-05
1.697e-05
2.089e-05
2.583e-05
3.215e-05
4.034e-05
5.112e-05
6.557e-05
8.528e-05
0.0001127
0.0001515
0.0002076
0.0002897
0.0004113
0.0005915
0.0008535
0.001221
2.063e-07
3.703e-07
5.077e-07
7.079e-07
9.844e-07
1.346e-06
1.8e-06
2.359e-06
3.038e-06
3.856e-06
4.837e-06
6.012e-06
7.424e-06
9.126e-06
1.119e-05
1.371e-05
1.681e-05
2.067e-05
2.552e-05
3.172e-05
3.972e-05
5.024e-05
6.429e-05
8.339e-05
0.0001099
0.0001472
0.000201
0.0002795
0.0003955
0.0005675
0.0008181
0.001172
2.063e-07
3.699e-07
5.064e-07
7.052e-07
9.797e-07
1.338e-06
1.788e-06
2.342e-06
3.014e-06
3.822e-06
4.789e-06
5.947e-06
7.335e-06
9.004e-06
1.102e-05
1.348e-05
1.65e-05
2.024e-05
2.493e-05
3.089e-05
3.855e-05
4.856e-05
6.185e-05
7.98e-05
0.0001045
0.0001391
0.0001884
0.0002599
0.0003649
0.0005199
0.0007461
0.001068
2.062e-07
3.693e-07
5.046e-07
7.013e-07
9.728e-07
1.327e-06
1.771e-06
2.317e-06
2.978e-06
3.772e-06
4.72e-06
5.852e-06
7.205e-06
8.828e-06
1.078e-05
1.315e-05
1.605e-05
1.963e-05
2.408e-05
2.971e-05
3.689e-05
4.619e-05
5.844e-05
7.48e-05
9.705e-05
0.0001278
0.000171
0.0002327
0.0003218
0.0004513
0.0006378
0.0009007
3.465e-07
5.877e-07
7.361e-07
9.379e-07
1.215e-06
1.576e-06
2.031e-06
2.589e-06
3.267e-06
4.082e-06
5.058e-06
6.226e-06
7.626e-06
9.31e-06
1.134e-05
1.382e-05
1.685e-05
2.061e-05
2.53e-05
3.124e-05
3.885e-05
4.872e-05
6.171e-05
7.906e-05
0.0001025
0.0001348
0.0001795
0.0002419
0.0003293
0.0004503
0.0006133
0.0008213
3.464e-07
5.874e-07
7.353e-07
9.364e-07
1.212e-06
1.572e-06
2.025e-06
2.581e-06
3.254e-06
4.064e-06
5.034e-06
6.193e-06
7.582e-06
9.249e-06
1.126e-05
1.371e-05
1.67e-05
2.04e-05
2.501e-05
3.084e-05
3.828e-05
4.792e-05
6.057e-05
7.741e-05
0.0001001
0.0001312
0.0001742
0.0002341
0.0003176
0.0004331
0.0005888
0.000788
3.462e-07
5.868e-07
7.339e-07
9.335e-07
1.207e-06
1.564e-06
2.013e-06
2.564e-06
3.23e-06
4.031e-06
4.988e-06
6.13e-06
7.495e-06
9.131e-06
1.11e-05
1.349e-05
1.64e-05
1.999e-05
2.446e-05
3.007e-05
3.721e-05
4.641e-05
5.841e-05
7.429e-05
9.558e-05
0.0001245
0.0001641
0.000219
0.000295
0.0003997
0.0005403
0.0007207
3.459e-07
5.858e-07
7.317e-07
9.293e-07
1.2e-06
1.553e-06
1.996e-06
2.539e-06
3.195e-06
3.981e-06
4.92e-06
6.037e-06
7.369e-06
8.961e-06
1.087e-05
1.318e-05
1.598e-05
1.941e-05
2.366e-05
2.897e-05
3.568e-05
4.426e-05
5.536e-05
6.992e-05
8.922e-05
0.0001151
0.0001502
0.0001982
0.0002636
0.0003524
0.0004704
0.0006202
5.203e-07
8.569e-07
1.018e-06
1.221e-06
1.497e-06
1.856e-06
2.307e-06
2.861e-06
3.532e-06
4.336e-06
5.298e-06
6.445e-06
7.814e-06
9.454e-06
1.143e-05
1.381e-05
1.671e-05
2.028e-05
2.469e-05
3.021e-05
3.718e-05
4.609e-05
5.76e-05
7.262e-05
9.243e-05
0.0001188
0.000154
0.0002011
0.0002638
0.0003459
0.0004501
0.0005747
5.201e-07
8.565e-07
1.017e-06
1.219e-06
1.494e-06
1.852e-06
2.301e-06
2.852e-06
3.519e-06
4.319e-06
5.274e-06
6.413e-06
7.771e-06
9.395e-06
1.135e-05
1.37e-05
1.657e-05
2.008e-05
2.442e-05
2.984e-05
3.668e-05
4.539e-05
5.661e-05
7.122e-05
9.043e-05
0.0001159
0.0001498
0.0001951
0.0002552
0.0003338
0.0004333
0.0005526
5.197e-07
8.556e-07
1.016e-06
1.216e-06
1.489e-06
1.844e-06
2.289e-06
2.836e-06
3.496e-06
4.286e-06
5.229e-06
6.351e-06
7.688e-06
9.283e-06
1.119e-05
1.35e-05
1.629e-05
1.97e-05
2.391e-05
2.914e-05
3.571e-05
4.404e-05
5.472e-05
6.855e-05
8.662e-05
0.0001104
0.0001419
0.0001837
0.0002388
0.0003104
0.0004008
0.000509
5.192e-07
8.542e-07
1.013e-06
1.212e-06
1.481e-06
1.832e-06
2.272e-06
2.811e-06
3.461e-06
4.238e-06
5.163e-06
6.262e-06
7.566e-06
9.119e-06
1.097e-05
1.32e-05
1.589e-05
1.916e-05
2.317e-05
2.813e-05
3.432e-05
4.213e-05
5.205e-05
6.479e-05
8.13e-05
0.0001028
0.000131
0.0001679
0.000216
0.0002778
0.000355
0.0004466
7.252e-07
1.174e-06
1.351e-06
1.554e-06
1.829e-06
2.185e-06
2.632e-06
3.18e-06
3.842e-06
4.635e-06
5.578e-06
6.7e-06
8.035e-06
9.624e-06
1.152e-05
1.381e-05
1.657e-05
1.992e-05
2.404e-05
2.912e-05
3.546e-05
4.342e-05
5.35e-05
6.638e-05
8.293e-05
0.0001043
0.0001319
0.0001674
0.0002127
0.0002694
0.0003379
0.0004163
7.249e-07
1.174e-06
1.35e-06
1.552e-06
1.826e-06
2.181e-06
2.626e-06
3.172e-06
3.83e-06
4.618e-06
5.556e-06
6.67e-06
7.993e-06
9.569e-06
1.145e-05
1.371e-05
1.643e-05
1.974e-05
2.379e-05
2.879e-05
3.5e-05
4.28e-05
5.265e-05
6.52e-05
8.128e-05
0.000102
0.0001286
0.0001629
0.0002065
0.0002608
0.0003265
0.0004016
7.244e-07
1.172e-06
1.348e-06
1.549e-06
1.82e-06
2.173e-06
2.614e-06
3.155e-06
3.807e-06
4.586e-06
5.512e-06
6.611e-06
7.913e-06
9.461e-06
1.131e-05
1.352e-05
1.617e-05
1.94e-05
2.333e-05
2.816e-05
3.414e-05
4.161e-05
5.102e-05
6.294e-05
7.814e-05
9.759e-05
0.0001225
0.0001543
0.0001945
0.0002445
0.0003045
0.0003731
7.235e-07
1.171e-06
1.344e-06
1.544e-06
1.813e-06
2.161e-06
2.597e-06
3.13e-06
3.773e-06
4.539e-06
5.448e-06
6.524e-06
7.797e-06
9.306e-06
1.11e-05
1.324e-05
1.58e-05
1.89e-05
2.265e-05
2.725e-05
3.291e-05
3.993e-05
4.871e-05
5.976e-05
7.373e-05
9.146e-05
0.000114
0.0001424
0.000178
0.0002218
0.0002739
0.000333
9.585e-07
1.535e-06
1.729e-06
1.933e-06
2.206e-06
2.559e-06
3.001e-06
3.542e-06
4.194e-06
4.972e-06
5.896e-06
6.99e-06
8.284e-06
9.819e-06
1.164e-05
1.382e-05
1.643e-05
1.957e-05
2.338e-05
2.803e-05
3.374e-05
4.08e-05
4.958e-05
6.056e-05
7.432e-05
9.159e-05
0.0001132
0.0001402
0.0001733
0.0002132
0.0002596
0.000311
9.581e-07
1.534e-06
1.728e-06
1.931e-06
2.203e-06
2.554e-06
2.995e-06
3.533e-06
4.182e-06
4.956e-06
5.874e-06
6.96e-06
8.245e-06
9.766e-06
1.157e-05
1.373e-05
1.63e-05
1.94e-05
2.316e-05
2.773e-05
3.334e-05
4.027e-05
4.886e-05
5.957e-05
7.297e-05
8.975e-05
0.0001107
0.0001368
0.0001687
0.0002071
0.0002517
0.0003011
9.573e-07
1.533e-06
1.725e-06
1.928e-06
2.197e-06
2.546e-06
2.983e-06
3.517e-06
4.159e-06
4.925e-06
5.832e-06
6.904e-06
8.169e-06
9.665e-06
1.144e-05
1.355e-05
1.606e-05
1.909e-05
2.274e-05
2.717e-05
3.258e-05
3.924e-05
4.747e-05
5.768e-05
7.04e-05
8.625e-05
0.000106
0.0001303
0.00016
0.0001955
0.0002367
0.0002821
9.561e-07
1.531e-06
1.722e-06
1.922e-06
2.189e-06
2.534e-06
2.966e-06
3.493e-06
4.126e-06
4.879e-06
5.77e-06
6.821e-06
8.059e-06
9.519e-06
1.124e-05
1.329e-05
1.572e-05
1.863e-05
2.213e-05
2.635e-05
3.149e-05
3.778e-05
4.549e-05
5.501e-05
6.678e-05
8.134e-05
9.93e-05
0.0001213
0.0001479
0.0001795
0.0002158
0.0002557
1.217e-06
1.935e-06
2.147e-06
2.353e-06
2.622e-06
2.972e-06
3.408e-06
3.941e-06
4.581e-06
5.343e-06
6.245e-06
7.308e-06
8.56e-06
1.004e-05
1.178e-05
1.384e-05
1.63e-05
1.922e-05
2.274e-05
2.697e-05
3.209e-05
3.833e-05
4.594e-05
5.526e-05
6.669e-05
8.068e-05
9.773e-05
0.0001183
0.0001429
0.0001715
0.0002039
0.0002388
1.216e-06
1.934e-06
2.146e-06
2.35e-06
2.62e-06
2.967e-06
3.402e-06
3.932e-06
4.57e-06
5.328e-06
6.224e-06
7.28e-06
8.523e-06
9.987e-06
1.171e-05
1.376e-05
1.618e-05
1.907e-05
2.254e-05
2.671e-05
3.175e-05
3.787e-05
4.533e-05
5.444e-05
6.56e-05
7.922e-05
9.579e-05
0.0001158
0.0001395
0.0001672
0.0001984
0.0002321
1.215e-06
1.932e-06
2.143e-06
2.347e-06
2.614e-06
2.959e-06
3.39e-06
3.916e-06
4.547e-06
5.297e-06
6.183e-06
7.226e-06
8.451e-06
9.892e-06
1.159e-05
1.359e-05
1.596e-05
1.879e-05
2.216e-05
2.62e-05
3.108e-05
3.698e-05
4.415e-05
5.288e-05
6.35e-05
7.643e-05
9.209e-05
0.0001109
0.0001331
0.0001589
0.0001879
0.0002192
1.214e-06
1.93e-06
2.139e-06
2.341e-06
2.605e-06
2.947e-06
3.373e-06
3.892e-06
4.515e-06
5.253e-06
6.124e-06
7.147e-06
8.347e-06
9.754e-06
1.141e-05
1.335e-05
1.565e-05
1.837e-05
2.161e-05
2.548e-05
3.013e-05
3.572e-05
4.247e-05
5.065e-05
6.055e-05
7.251e-05
8.69e-05
0.000104
0.0001242
0.0001474
0.0001734
0.0002012
1.497e-06
2.369e-06
2.601e-06
2.807e-06
3.074e-06
3.418e-06
3.848e-06
4.371e-06
4.999e-06
5.743e-06
6.62e-06
7.65e-06
8.857e-06
1.027e-05
1.193e-05
1.388e-05
1.618e-05
1.89e-05
2.212e-05
2.596e-05
3.055e-05
3.604e-05
4.263e-05
5.055e-05
6.005e-05
7.142e-05
8.494e-05
0.0001009
0.0001193
0.0001403
0.0001635
0.000188
1.497e-06
2.368e-06
2.6e-06
2.805e-06
3.071e-06
3.414e-06
3.842e-06
4.363e-06
4.988e-06
5.728e-06
6.6e-06
7.624e-06
8.822e-06
1.023e-05
1.187e-05
1.38e-05
1.608e-05
1.876e-05
2.195e-05
2.573e-05
3.025e-05
3.564e-05
4.211e-05
4.987e-05
5.916e-05
7.026e-05
8.344e-05
9.892e-05
0.0001169
0.0001372
0.0001596
0.0001833
1.495e-06
2.366e-06
2.597e-06
2.801e-06
3.065e-06
3.406e-06
3.83e-06
4.347e-06
4.966e-06
5.699e-06
6.562e-06
7.573e-06
8.755e-06
1.014e-05
1.176e-05
1.365e-05
1.588e-05
1.851e-05
2.161e-05
2.529e-05
2.967e-05
3.489e-05
4.112e-05
4.857e-05
5.746e-05
6.804e-05
8.056e-05
9.521e-05
0.0001121
0.0001312
0.0001522
0.0001744
1.494e-06
2.362e-06
2.592e-06
2.794e-06
3.056e-06
3.393e-06
3.813e-06
4.324e-06
4.934e-06
5.657e-06
6.505e-06
7.498e-06
8.657e-06
1.001e-05
1.159e-05
1.343e-05
1.559e-05
1.813e-05
2.112e-05
2.465e-05
2.884e-05
3.38e-05
3.97e-05
4.672e-05
5.505e-05
6.491e-05
7.65e-05
8.999e-05
0.0001055
0.0001229
0.0001419
0.0001619
1.796e-06
2.831e-06
3.085e-06
3.291e-06
3.554e-06
3.893e-06
4.315e-06
4.828e-06
5.441e-06
6.166e-06
7.017e-06
8.012e-06
9.172e-06
1.052e-05
1.21e-05
1.394e-05
1.609e-05
1.86e-05
2.155e-05
2.503e-05
2.912e-05
3.395e-05
3.966e-05
4.64e-05
5.433e-05
6.362e-05
7.444e-05
8.689e-05
0.000101
0.0001167
0.0001337
0.0001514
1.796e-06
2.83e-06
3.083e-06
3.288e-06
3.551e-06
3.889e-06
4.309e-06
4.82e-06
5.43e-06
6.152e-06
6.998e-06
7.987e-06
9.14e-06
1.048e-05
1.204e-05
1.387e-05
1.599e-05
1.848e-05
2.14e-05
2.483e-05
2.886e-05
3.362e-05
3.923e-05
4.584e-05
5.361e-05
6.27e-05
7.326e-05
8.54e-05
9.915e-05
0.0001144
0.0001309
0.0001481
1.794e-06
2.827e-06
3.08e-06
3.284e-06
3.545e-06
3.88e-06
4.298e-06
4.804e-06
5.409e-06
6.124e-06
6.962e-06
7.939e-06
9.077e-06
1.04e-05
1.194e-05
1.373e-05
1.581e-05
1.825e-05
2.11e-05
2.444e-05
2.836e-05
3.297e-05
3.839e-05
4.476e-05
5.223e-05
6.093e-05
7.101e-05
8.256e-05
9.559e-05
0.00011
0.0001255
0.0001417
1.792e-06
2.824e-06
3.075e-06
3.277e-06
3.536e-06
3.868e-06
4.281e-06
4.782e-06
5.379e-06
6.083e-06
6.908e-06
7.869e-06
8.986e-06
1.028e-05
1.178e-05
1.353e-05
1.556e-05
1.792e-05
2.067e-05
2.388e-05
2.764e-05
3.204e-05
3.72e-05
4.323e-05
5.026e-05
5.842e-05
6.783e-05
7.855e-05
9.059e-05
0.0001039
0.0001181
0.0001329
2.11e-06
3.316e-06
3.592e-06
3.798e-06
4.058e-06
4.391e-06
4.804e-06
5.305e-06
5.903e-06
6.607e-06
7.43e-06
8.389e-06
9.501e-06
1.079e-05
1.228e-05
1.401e-05
1.601e-05
1.834e-05
2.104e-05
2.418e-05
2.783e-05
3.208e-05
3.703e-05
4.278e-05
4.943e-05
5.708e-05
6.581e-05
7.566e-05
8.662e-05
9.858e-05
0.0001113
0.0001244
2.109e-06
3.315e-06
3.59e-06
3.796e-06
4.055e-06
4.386e-06
4.798e-06
5.297e-06
5.892e-06
6.593e-06
7.413e-06
8.366e-06
9.471e-06
1.075e-05
1.223e-05
1.395e-05
1.593e-05
1.823e-05
2.09e-05
2.4e-05
2.761e-05
3.18e-05
3.667e-05
4.232e-05
4.884e-05
5.634e-05
6.488e-05
7.452e-05
8.521e-05
9.687e-05
0.0001093
0.000122
2.108e-06
3.312e-06
3.587e-06
3.791e-06
4.048e-06
4.378e-06
4.787e-06
5.282e-06
5.872e-06
6.567e-06
7.378e-06
8.321e-06
9.413e-06
1.068e-05
1.213e-05
1.382e-05
1.577e-05
1.802e-05
2.064e-05
2.366e-05
2.717e-05
3.125e-05
3.597e-05
4.143e-05
4.772e-05
5.493e-05
6.312e-05
7.233e-05
8.252e-05
9.361e-05
0.0001054
0.0001175
2.105e-06
3.308e-06
3.582e-06
3.784e-06
4.039e-06
4.365e-06
4.77e-06
5.26e-06
5.843e-06
6.528e-06
7.328e-06
8.255e-06
9.328e-06
1.057e-05
1.199e-05
1.364e-05
1.554e-05
1.773e-05
2.025e-05
2.318e-05
2.655e-05
3.046e-05
3.497e-05
4.016e-05
4.612e-05
5.292e-05
6.061e-05
6.922e-05
7.872e-05
8.9e-05
9.988e-05
0.000111
2.436e-06
3.82e-06
4.118e-06
4.324e-06
4.579e-06
4.905e-06
5.309e-06
5.797e-06
6.378e-06
7.06e-06
7.855e-06
8.777e-06
9.84e-06
1.107e-05
1.248e-05
1.41e-05
1.596e-05
1.81e-05
2.057e-05
2.341e-05
2.667e-05
3.042e-05
3.472e-05
3.964e-05
4.525e-05
5.159e-05
5.871e-05
6.66e-05
7.524e-05
8.451e-05
9.423e-05
0.0001042
2.435e-06
3.818e-06
4.116e-06
4.321e-06
4.576e-06
4.9e-06
5.303e-06
5.79e-06
6.368e-06
7.047e-06
7.839e-06
8.755e-06
9.813e-06
1.103e-05
1.243e-05
1.404e-05
1.589e-05
1.801e-05
2.045e-05
2.325e-05
2.648e-05
3.018e-05
3.442e-05
3.926e-05
4.477e-05
5.1e-05
5.798e-05
6.572e-05
7.416e-05
8.322e-05
9.272e-05
0.0001024
2.433e-06
3.815e-06
4.113e-06
4.317e-06
4.569e-06
4.892e-06
5.292e-06
5.775e-06
6.349e-06
7.022e-06
7.806e-06
8.713e-06
9.759e-06
1.096e-05
1.234e-05
1.393e-05
1.574e-05
1.783e-05
2.022e-05
2.296e-05
2.611e-05
2.971e-05
3.383e-05
3.853e-05
4.386e-05
4.987e-05
5.659e-05
6.401e-05
7.211e-05
8.077e-05
8.983e-05
9.906e-05
2.43e-06
3.811e-06
4.107e-06
4.309e-06
4.56e-06
4.88e-06
5.276e-06
5.754e-06
6.321e-06
6.986e-06
7.759e-06
8.652e-06
9.68e-06
1.086e-05
1.221e-05
1.376e-05
1.553e-05
1.756e-05
1.988e-05
2.254e-05
2.557e-05
2.904e-05
3.299e-05
3.747e-05
4.255e-05
4.825e-05
5.46e-05
6.159e-05
6.918e-05
7.728e-05
8.574e-05
9.433e-05
2.77e-06
4.336e-06
4.657e-06
4.862e-06
5.112e-06
5.43e-06
5.824e-06
6.299e-06
6.862e-06
7.522e-06
8.288e-06
9.171e-06
1.019e-05
1.135e-05
1.268e-05
1.42e-05
1.593e-05
1.79e-05
2.016e-05
2.272e-05
2.564e-05
2.895e-05
3.27e-05
3.693e-05
4.169e-05
4.699e-05
5.285e-05
5.925e-05
6.615e-05
7.346e-05
8.103e-05
8.87e-05
2.769e-06
4.334e-06
4.655e-06
4.86e-06
5.109e-06
5.426e-06
5.819e-06
6.292e-06
6.853e-06
7.51e-06
8.272e-06
9.151e-06
1.016e-05
1.132e-05
1.264e-05
1.414e-05
1.586e-05
1.782e-05
2.005e-05
2.259e-05
2.547e-05
2.874e-05
3.245e-05
3.662e-05
4.13e-05
4.652e-05
5.227e-05
5.856e-05
6.532e-05
7.248e-05
7.99e-05
8.739e-05
2.767e-06
4.331e-06
4.651e-06
4.855e-06
5.102e-06
5.418e-06
5.808e-06
6.278e-06
6.835e-06
7.486e-06
8.242e-06
9.112e-06
1.011e-05
1.125e-05
1.256e-05
1.404e-05
1.574e-05
1.766e-05
1.985e-05
2.234e-05
2.516e-05
2.835e-05
3.196e-05
3.601e-05
4.056e-05
4.56e-05
5.117e-05
5.722e-05
6.373e-05
7.061e-05
7.772e-05
8.49e-05
2.764e-06
4.326e-06
4.645e-06
4.847e-06
5.093e-06
5.406e-06
5.792e-06
6.257e-06
6.808e-06
7.452e-06
8.197e-06
9.056e-06
1.004e-05
1.116e-05
1.244e-05
1.39e-05
1.555e-05
1.743e-05
1.956e-05
2.197e-05
2.47e-05
2.778e-05
3.125e-05
3.514e-05
3.948e-05
4.43e-05
4.958e-05
5.532e-05
6.147e-05
6.794e-05
7.463e-05
8.136e-05
3.109e-06
4.859e-06
5.204e-06
5.408e-06
5.653e-06
5.963e-06
6.345e-06
6.806e-06
7.351e-06
7.987e-06
8.723e-06
9.568e-06
1.053e-05
1.164e-05
1.289e-05
1.431e-05
1.592e-05
1.774e-05
1.979e-05
2.211e-05
2.473e-05
2.766e-05
3.094e-05
3.46e-05
3.866e-05
4.313e-05
4.8e-05
5.325e-05
5.884e-05
6.468e-05
7.068e-05
7.67e-05
3.108e-06
4.858e-06
5.202e-06
5.406e-06
5.649e-06
5.958e-06
6.34e-06
6.799e-06
7.342e-06
7.976e-06
8.708e-06
9.55e-06
1.051e-05
1.161e-05
1.285e-05
1.426e-05
1.586e-05
1.766e-05
1.97e-05
2.2e-05
2.459e-05
2.749e-05
3.073e-05
3.434e-05
3.835e-05
4.274e-05
4.754e-05
5.27e-05
5.819e-05
6.393e-05
6.982e-05
7.572e-05
3.106e-06
4.854e-06
5.198e-06
5.401e-06
5.643e-06
5.95e-06
6.33e-06
6.786e-06
7.325e-06
7.954e-06
8.68e-06
9.514e-06
1.047e-05
1.155e-05
1.278e-05
1.417e-05
1.575e-05
1.752e-05
1.953e-05
2.178e-05
2.431e-05
2.715e-05
3.032e-05
3.384e-05
3.774e-05
4.201e-05
4.665e-05
5.165e-05
5.696e-05
6.249e-05
6.816e-05
7.384e-05
3.103e-06
4.849e-06
5.192e-06
5.393e-06
5.633e-06
5.938e-06
6.314e-06
6.766e-06
7.3e-06
7.921e-06
8.639e-06
9.461e-06
1.04e-05
1.147e-05
1.267e-05
1.404e-05
1.558e-05
1.732e-05
1.927e-05
2.146e-05
2.392e-05
2.667e-05
2.973e-05
3.312e-05
3.686e-05
4.095e-05
4.539e-05
5.015e-05
5.518e-05
6.043e-05
6.579e-05
7.115e-05
3.45e-06
5.387e-06
5.754e-06
5.957e-06
6.195e-06
6.497e-06
6.868e-06
7.314e-06
7.84e-06
8.452e-06
9.157e-06
9.964e-06
1.088e-05
1.193e-05
1.31e-05
1.443e-05
1.592e-05
1.76e-05
1.948e-05
2.158e-05
2.393e-05
2.653e-05
2.942e-05
3.26e-05
3.609e-05
3.988e-05
4.396e-05
4.832e-05
5.29e-05
5.764e-05
6.247e-05
6.727e-05
3.449e-06
5.385e-06
5.752e-06
5.955e-06
6.192e-06
6.493e-06
6.863e-06
7.307e-06
7.831e-06
8.441e-06
9.144e-06
9.947e-06
1.086e-05
1.19e-05
1.307e-05
1.439e-05
1.587e-05
1.754e-05
1.94e-05
2.148e-05
2.381e-05
2.639e-05
2.924e-05
3.238e-05
3.583e-05
3.957e-05
4.36e-05
4.789e-05
5.24e-05
5.706e-05
6.18e-05
6.652e-05
3.447e-06
5.381e-06
5.748e-06
5.95e-06
6.186e-06
6.485e-06
6.853e-06
7.294e-06
7.815e-06
8.42e-06
9.117e-06
9.914e-06
1.082e-05
1.185e-05
1.3e-05
1.431e-05
1.577e-05
1.741e-05
1.925e-05
2.13e-05
2.358e-05
2.61e-05
2.89e-05
3.197e-05
3.533e-05
3.897e-05
4.289e-05
4.705e-05
5.142e-05
5.594e-05
6.053e-05
6.509e-05
3.444e-06
5.376e-06
5.742e-06
5.942e-06
6.176e-06
6.473e-06
6.838e-06
7.276e-06
7.791e-06
8.39e-06
9.079e-06
9.866e-06
1.076e-05
1.177e-05
1.291e-05
1.419e-05
1.563e-05
1.723e-05
1.903e-05
2.102e-05
2.324e-05
2.569e-05
2.84e-05
3.137e-05
3.461e-05
3.811e-05
4.187e-05
4.585e-05
5.003e-05
5.434e-05
5.87e-05
6.303e-05
3.791e-06
5.913e-06
6.303e-06
6.504e-06
6.736e-06
7.028e-06
7.387e-06
7.818e-06
8.324e-06
8.912e-06
9.587e-06
1.036e-05
1.123e-05
1.221e-05
1.332e-05
1.456e-05
1.595e-05
1.749e-05
1.921e-05
2.112e-05
2.323e-05
2.555e-05
2.81e-05
3.088e-05
3.389e-05
3.713e-05
4.059e-05
4.424e-05
4.804e-05
5.195e-05
5.588e-05
5.977e-05
3.79e-06
5.911e-06
6.301e-06
6.502e-06
6.733e-06
7.024e-06
7.382e-06
7.812e-06
8.317e-06
8.902e-06
9.575e-06
1.034e-05
1.121e-05
1.219e-05
1.329e-05
1.452e-05
1.59e-05
1.744e-05
1.914e-05
2.103e-05
2.312e-05
2.543e-05
2.795e-05
3.07e-05
3.368e-05
3.688e-05
4.03e-05
4.39e-05
4.765e-05
5.149e-05
5.536e-05
5.919e-05
3.787e-06
5.907e-06
6.297e-06
6.497e-06
6.727e-06
7.016e-06
7.373e-06
7.8e-06
8.301e-06
8.883e-06
9.551e-06
1.031e-05
1.117e-05
1.214e-05
1.323e-05
1.445e-05
1.581e-05
1.733e-05
1.901e-05
2.087e-05
2.293e-05
2.519e-05
2.766e-05
3.035e-05
3.327e-05
3.64e-05
3.973e-05
4.323e-05
4.688e-05
5.061e-05
5.437e-05
5.808e-05
3.784e-06
5.902e-06
6.29e-06
6.489e-06
6.717e-06
7.005e-06
7.359e-06
7.782e-06
8.279e-06
8.855e-06
9.515e-06
1.027e-05
1.112e-05
1.207e-05
1.315e-05
1.435e-05
1.568e-05
1.717e-05
1.882e-05
2.064e-05
2.264e-05
2.484e-05
2.724e-05
2.985e-05
3.267e-05
3.569e-05
3.89e-05
4.227e-05
4.577e-05
4.935e-05
5.294e-05
5.649e-05
4.128e-06
6.434e-06
6.847e-06
7.046e-06
7.271e-06
7.553e-06
7.9e-06
8.315e-06
8.802e-06
9.365e-06
1.001e-05
1.074e-05
1.157e-05
1.25e-05
1.354e-05
1.47e-05
1.598e-05
1.741e-05
1.898e-05
2.072e-05
2.262e-05
2.469e-05
2.695e-05
2.939e-05
3.202e-05
3.481e-05
3.777e-05
4.086e-05
4.404e-05
4.729e-05
5.054e-05
5.373e-05
4.127e-06
6.432e-06
6.844e-06
7.043e-06
7.268e-06
7.549e-06
7.895e-06
8.309e-06
8.794e-06
9.356e-06
9.999e-06
1.073e-05
1.155e-05
1.248e-05
1.351e-05
1.466e-05
1.594e-05
1.736e-05
1.892e-05
2.064e-05
2.253e-05
2.459e-05
2.683e-05
2.925e-05
3.184e-05
3.461e-05
3.753e-05
4.058e-05
4.373e-05
4.693e-05
5.013e-05
5.328e-05
4.125e-06
6.428e-06
6.84e-06
7.038e-06
7.261e-06
7.542e-06
7.886e-06
8.298e-06
8.78e-06
9.338e-06
9.976e-06
1.07e-05
1.152e-05
1.244e-05
1.346e-05
1.46e-05
1.587e-05
1.727e-05
1.881e-05
2.051e-05
2.236e-05
2.439e-05
2.659e-05
2.896e-05
3.15e-05
3.421e-05
3.707e-05
4.005e-05
4.312e-05
4.624e-05
4.936e-05
5.242e-05
4.122e-06
6.422e-06
6.834e-06
7.031e-06
7.253e-06
7.531e-06
7.873e-06
8.281e-06
8.759e-06
9.312e-06
9.944e-06
1.066e-05
1.147e-05
1.237e-05
1.338e-05
1.451e-05
1.575e-05
1.713e-05
1.864e-05
2.03e-05
2.212e-05
2.409e-05
2.624e-05
2.854e-05
3.101e-05
3.364e-05
3.64e-05
3.927e-05
4.223e-05
4.524e-05
4.823e-05
5.117e-05
4.46e-06
6.946e-06
7.381e-06
7.578e-06
7.796e-06
8.069e-06
8.403e-06
8.802e-06
9.269e-06
9.808e-06
1.042e-05
1.112e-05
1.19e-05
1.278e-05
1.375e-05
1.484e-05
1.603e-05
1.735e-05
1.879e-05
2.037e-05
2.209e-05
2.395e-05
2.596e-05
2.812e-05
3.042e-05
3.284e-05
3.539e-05
3.802e-05
4.073e-05
4.346e-05
4.617e-05
4.882e-05
4.459e-06
6.944e-06
7.379e-06
7.575e-06
7.793e-06
8.065e-06
8.398e-06
8.796e-06
9.262e-06
9.799e-06
1.041e-05
1.111e-05
1.189e-05
1.276e-05
1.373e-05
1.481e-05
1.6e-05
1.73e-05
1.874e-05
2.031e-05
2.201e-05
2.386e-05
2.586e-05
2.8e-05
3.027e-05
3.267e-05
3.519e-05
3.78e-05
4.047e-05
4.317e-05
4.585e-05
4.847e-05
4.457e-06
6.94e-06
7.374e-06
7.57e-06
7.787e-06
8.058e-06
8.39e-06
8.785e-06
9.249e-06
9.783e-06
1.039e-05
1.108e-05
1.186e-05
1.272e-05
1.368e-05
1.475e-05
1.593e-05
1.722e-05
1.864e-05
2.019e-05
2.187e-05
2.369e-05
2.566e-05
2.776e-05
2.999e-05
3.235e-05
3.482e-05
3.737e-05
3.998e-05
4.262e-05
4.524e-05
4.779e-05
4.454e-06
6.935e-06
7.368e-06
7.563e-06
7.778e-06
8.047e-06
8.377e-06
8.77e-06
9.229e-06
9.759e-06
1.036e-05
1.104e-05
1.181e-05
1.267e-05
1.362e-05
1.467e-05
1.583e-05
1.71e-05
1.849e-05
2.001e-05
2.166e-05
2.344e-05
2.536e-05
2.741e-05
2.958e-05
3.188e-05
3.427e-05
3.675e-05
3.927e-05
4.182e-05
4.435e-05
4.681e-05
4.785e-06
7.447e-06
7.903e-06
8.098e-06
8.308e-06
8.571e-06
8.892e-06
9.275e-06
9.723e-06
1.024e-05
1.082e-05
1.149e-05
1.223e-05
1.305e-05
1.397e-05
1.498e-05
1.609e-05
1.73e-05
1.863e-05
2.007e-05
2.163e-05
2.331e-05
2.511e-05
2.702e-05
2.904e-05
3.116e-05
3.337e-05
3.564e-05
3.796e-05
4.028e-05
4.257e-05
4.48e-05
4.784e-06
7.445e-06
7.9e-06
8.095e-06
8.305e-06
8.567e-06
8.888e-06
9.27e-06
9.716e-06
1.023e-05
1.081e-05
1.147e-05
1.221e-05
1.303e-05
1.395e-05
1.495e-05
1.606e-05
1.727e-05
1.859e-05
2.002e-05
2.157e-05
2.323e-05
2.502e-05
2.692e-05
2.892e-05
3.103e-05
3.321e-05
3.546e-05
3.775e-05
4.005e-05
4.232e-05
4.452e-05
4.782e-06
7.441e-06
7.896e-06
8.09e-06
8.299e-06
8.561e-06
8.88e-06
9.26e-06
9.704e-06
1.021e-05
1.08e-05
1.145e-05
1.218e-05
1.3e-05
1.391e-05
1.49e-05
1.6e-05
1.72e-05
1.85e-05
1.992e-05
2.145e-05
2.309e-05
2.485e-05
2.672e-05
2.869e-05
3.076e-05
3.291e-05
3.511e-05
3.736e-05
3.961e-05
4.183e-05
4.398e-05
4.778e-06
7.436e-06
7.89e-06
8.083e-06
8.291e-06
8.551e-06
8.868e-06
9.245e-06
9.686e-06
1.019e-05
1.077e-05
1.142e-05
1.214e-05
1.295e-05
1.385e-05
1.483e-05
1.591e-05
1.709e-05
1.837e-05
1.977e-05
2.127e-05
2.288e-05
2.46e-05
2.643e-05
2.835e-05
3.037e-05
3.246e-05
3.461e-05
3.679e-05
3.897e-05
4.112e-05
4.321e-05
5.87e-09
3.835e-08
1.117e-07
2.303e-07
3.955e-07
6.111e-07
8.822e-07
1.215e-06
1.618e-06
2.102e-06
2.681e-06
3.373e-06
4.201e-06
5.195e-06
6.395e-06
7.854e-06
9.643e-06
1.186e-05
1.465e-05
1.819e-05
2.276e-05
2.878e-05
3.686e-05
4.797e-05
6.367e-05
8.659e-05
0.0001213
0.0001765
0.0002693
0.0004362
0.0007569
0.001502
6.041e-09
3.813e-08
1.104e-07
2.269e-07
3.892e-07
6.008e-07
8.661e-07
1.191e-06
1.584e-06
2.054e-06
2.615e-06
3.281e-06
4.075e-06
5.024e-06
6.161e-06
7.536e-06
9.208e-06
1.126e-05
1.381e-05
1.702e-05
2.112e-05
2.642e-05
3.342e-05
4.283e-05
5.578e-05
7.406e-05
0.0001006
0.0001405
0.0002023
0.0003021
0.0004667
0.0007459
6.184e-09
3.781e-08
1.087e-07
2.231e-07
3.821e-07
5.89e-07
8.48e-07
1.165e-06
1.546e-06
2.001e-06
2.54e-06
3.179e-06
3.936e-06
4.834e-06
5.904e-06
7.185e-06
8.731e-06
1.061e-05
1.292e-05
1.578e-05
1.938e-05
2.397e-05
2.989e-05
3.768e-05
4.809e-05
6.228e-05
8.202e-05
0.00011
0.0001506
0.0002101
0.0002977
0.0004242
6.276e-09
3.737e-08
1.069e-07
2.188e-07
3.743e-07
5.762e-07
8.284e-07
1.136e-06
1.504e-06
1.943e-06
2.46e-06
3.069e-06
3.787e-06
4.632e-06
5.63e-06
6.816e-06
8.231e-06
9.933e-06
1.199e-05
1.452e-05
1.763e-05
2.153e-05
2.646e-05
3.277e-05
4.097e-05
5.177e-05
6.618e-05
8.561e-05
0.000112
0.000148
0.0001962
0.0002583
6.302e-09
3.681e-08
1.048e-07
2.143e-07
3.66e-07
5.627e-07
8.077e-07
1.105e-06
1.461e-06
1.882e-06
2.377e-06
2.956e-06
3.633e-06
4.424e-06
5.351e-06
6.44e-06
7.726e-06
9.252e-06
1.108e-05
1.327e-05
1.593e-05
1.92e-05
2.323e-05
2.827e-05
3.463e-05
4.272e-05
5.309e-05
6.646e-05
8.368e-05
0.0001057
0.0001332
0.000166
6.256e-09
3.613e-08
1.027e-07
2.096e-07
3.575e-07
5.489e-07
7.867e-07
1.075e-06
1.418e-06
1.821e-06
2.293e-06
2.842e-06
3.479e-06
4.217e-06
5.074e-06
6.07e-06
7.231e-06
8.59e-06
1.019e-05
1.208e-05
1.433e-05
1.703e-05
2.03e-05
2.426e-05
2.912e-05
3.509e-05
4.248e-05
5.161e-05
6.283e-05
7.645e-05
9.256e-05
0.0001108
6.136e-09
3.535e-08
1.004e-07
2.048e-07
3.491e-07
5.353e-07
7.66e-07
1.044e-06
1.375e-06
1.762e-06
2.211e-06
2.731e-06
3.329e-06
4.017e-06
4.807e-06
5.714e-06
6.759e-06
7.964e-06
9.359e-06
1.098e-05
1.287e-05
1.508e-05
1.769e-05
2.077e-05
2.443e-05
2.879e-05
3.398e-05
4.015e-05
4.743e-05
5.587e-05
6.543e-05
7.579e-05
5.954e-09
3.452e-08
9.815e-08
2.002e-07
3.409e-07
5.221e-07
7.461e-07
1.015e-06
1.334e-06
1.705e-06
2.133e-06
2.625e-06
3.188e-06
3.828e-06
4.556e-06
5.383e-06
6.322e-06
7.388e-06
8.601e-06
9.982e-06
1.156e-05
1.336e-05
1.542e-05
1.779e-05
2.052e-05
2.365e-05
2.724e-05
3.135e-05
3.6e-05
4.117e-05
4.679e-05
5.268e-05
5.724e-09
3.366e-08
9.598e-08
1.958e-07
3.332e-07
5.099e-07
7.275e-07
9.885e-07
1.296e-06
1.652e-06
2.062e-06
2.529e-06
3.058e-06
3.656e-06
4.329e-06
5.083e-06
5.929e-06
6.873e-06
7.928e-06
9.105e-06
1.042e-05
1.188e-05
1.35e-05
1.53e-05
1.73e-05
1.951e-05
2.195e-05
2.461e-05
2.749e-05
3.055e-05
3.373e-05
3.693e-05
5.47e-09
3.283e-08
9.398e-08
1.918e-07
3.263e-07
4.988e-07
7.109e-07
9.644e-07
1.262e-06
1.605e-06
1.997e-06
2.442e-06
2.943e-06
3.504e-06
4.128e-06
4.82e-06
5.585e-06
6.426e-06
7.348e-06
8.355e-06
9.448e-06
1.063e-05
1.191e-05
1.327e-05
1.472e-05
1.625e-05
1.784e-05
1.949e-05
2.117e-05
2.284e-05
2.447e-05
2.601e-05
5.218e-09
3.207e-08
9.22e-08
1.882e-07
3.201e-07
4.889e-07
6.96e-07
9.429e-07
1.231e-06
1.563e-06
1.941e-06
2.367e-06
2.843e-06
3.372e-06
3.956e-06
4.596e-06
5.294e-06
6.05e-06
6.863e-06
7.732e-06
8.652e-06
9.618e-06
1.062e-05
1.165e-05
1.269e-05
1.372e-05
1.471e-05
1.566e-05
1.652e-05
1.728e-05
1.791e-05
1.839e-05
4.986e-09
3.135e-08
9.042e-08
1.846e-07
3.138e-07
4.789e-07
6.811e-07
9.216e-07
1.202e-06
1.523e-06
1.888e-06
2.297e-06
2.751e-06
3.253e-06
3.802e-06
4.398e-06
5.041e-06
5.728e-06
6.454e-06
7.215e-06
8e-06
8.8e-06
9.599e-06
1.038e-05
1.112e-05
1.179e-05
1.237e-05
1.284e-05
1.316e-05
1.333e-05
1.332e-05
1.314e-05
4.735e-09
3.022e-08
8.718e-08
1.778e-07
3.02e-07
4.605e-07
6.544e-07
8.847e-07
1.152e-06
1.459e-06
1.805e-06
2.193e-06
2.621e-06
3.092e-06
3.603e-06
4.155e-06
4.744e-06
5.366e-06
6.016e-06
6.684e-06
7.36e-06