/*--------------------------------*- C++ -*----------------------------------*\
  =========                 |
  \\      /  F ield         | OpenFOAM: The Open Source CFD Toolbox
   \\    /   O peration     | Website:  https://openfoam.org
    \\  /    A nd           | Version:  6
     \\/     M anipulation  |
\*---------------------------------------------------------------------------*/
FoamFile
{
    version     2.0;
    format      ascii;
    class       volScalarField;
    location    "5";
    object      T;
}
// * * * * * * * * * * * * * * * * * * * * * * * * * * * * * * * * * * * * * //

dimensions      [0 0 0 1 0 0 0];

internalField   nonuniform List<scalar> 
16128
(
6.054
6.047
6.037
6.023
6.006
5.987
5.964
5.938
5.909
5.877
5.842
5.804
5.764
5.72
5.674
5.625
5.574
5.52
5.464
5.405
5.345
5.283
5.22
5.156
5.091
5.026
4.96
4.896
4.832
4.771
4.712
4.655
6.053
6.046
6.036
6.022
6.005
5.985
5.963
5.937
5.908
5.876
5.842
5.804
5.763
5.72
5.674
5.625
5.574
5.52
5.464
5.406
5.347
5.285
5.222
5.158
5.093
5.028
4.963
4.899
4.836
4.774
4.716
4.66
6.05
6.044
6.033
6.019
6.003
5.983
5.961
5.935
5.906
5.875
5.84
5.803
5.763
5.72
5.674
5.626
5.575
5.521
5.466
5.408
5.349
5.288
5.225
5.162
5.098
5.033
4.969
4.905
4.843
4.782
4.724
4.669
6.046
6.04
6.029
6.016
5.999
5.98
5.957
5.932
5.904
5.872
5.838
5.801
5.762
5.719
5.674
5.626
5.576
5.523
5.468
5.411
5.352
5.292
5.23
5.168
5.104
5.041
4.977
4.914
4.853
4.793
4.736
4.681
5.971
5.964
5.953
5.939
5.922
5.902
5.878
5.852
5.822
5.789
5.754
5.715
5.673
5.629
5.582
5.532
5.48
5.426
5.369
5.31
5.25
5.188
5.125
5.061
4.996
4.931
4.867
4.804
4.742
4.682
4.624
4.57
5.97
5.963
5.952
5.938
5.921
5.901
5.877
5.851
5.821
5.789
5.753
5.715
5.673
5.629
5.582
5.533
5.481
5.426
5.37
5.311
5.251
5.189
5.126
5.063
4.998
4.934
4.87
4.807
4.745
4.686
4.628
4.574
5.968
5.961
5.95
5.936
5.919
5.899
5.876
5.849
5.82
5.787
5.752
5.714
5.673
5.629
5.582
5.533
5.482
5.428
5.372
5.314
5.254
5.193
5.13
5.067
5.003
4.939
4.876
4.814
4.752
4.693
4.637
4.583
5.964
5.957
5.946
5.933
5.916
5.896
5.873
5.847
5.818
5.786
5.751
5.713
5.672
5.629
5.583
5.534
5.483
5.43
5.374
5.317
5.258
5.197
5.136
5.073
5.01
4.947
4.885
4.823
4.763
4.704
4.649
4.596
5.89
5.882
5.871
5.857
5.839
5.818
5.794
5.767
5.736
5.703
5.666
5.627
5.584
5.539
5.491
5.44
5.388
5.332
5.275
5.216
5.155
5.093
5.03
4.966
4.902
4.838
4.775
4.712
4.651
4.593
4.537
4.484
5.888
5.881
5.87
5.856
5.838
5.817
5.793
5.766
5.736
5.702
5.666
5.627
5.584
5.539
5.491
5.441
5.388
5.333
5.276
5.217
5.157
5.095
5.032
4.968
4.905
4.841
4.778
4.716
4.655
4.597
4.541
4.488
5.886
5.879
5.868
5.854
5.836
5.816
5.792
5.765
5.735
5.701
5.665
5.626
5.584
5.539
5.492
5.442
5.389
5.335
5.278
5.22
5.16
5.098
5.036
4.973
4.91
4.847
4.784
4.722
4.662
4.604
4.549
4.497
5.883
5.876
5.865
5.851
5.834
5.813
5.789
5.763
5.733
5.7
5.664
5.625
5.584
5.54
5.493
5.443
5.391
5.337
5.281
5.224
5.164
5.104
5.042
4.98
4.917
4.855
4.793
4.732
4.673
4.616
4.561
4.51
5.809
5.802
5.791
5.776
5.758
5.736
5.711
5.683
5.652
5.618
5.58
5.54
5.496
5.45
5.401
5.35
5.296
5.24
5.182
5.123
5.062
4.999
4.936
4.872
4.809
4.745
4.683
4.621
4.561
4.504
4.449
4.398
5.808
5.801
5.79
5.775
5.757
5.735
5.711
5.683
5.652
5.617
5.58
5.54
5.496
5.45
5.402
5.351
5.297
5.241
5.184
5.124
5.063
5.001
4.938
4.875
4.811
4.748
4.686
4.624
4.565
4.508
4.453
4.402
5.806
5.799
5.788
5.773
5.755
5.734
5.709
5.682
5.651
5.617
5.58
5.54
5.497
5.451
5.403
5.352
5.299
5.243
5.186
5.127
5.067
5.005
4.943
4.88
4.817
4.754
4.692
4.631
4.572
4.516
4.462
4.411
5.803
5.796
5.785
5.77
5.753
5.732
5.707
5.68
5.649
5.616
5.579
5.539
5.497
5.452
5.404
5.354
5.301
5.246
5.19
5.131
5.072
5.011
4.949
4.887
4.825
4.763
4.702
4.642
4.583
4.527
4.474
4.424
5.73
5.723
5.711
5.696
5.677
5.655
5.63
5.601
5.569
5.534
5.496
5.454
5.41
5.363
5.313
5.261
5.206
5.149
5.091
5.03
4.969
4.906
4.843
4.779
4.716
4.653
4.591
4.53
4.471
4.415
4.361
4.311
5.729
5.722
5.71
5.695
5.677
5.655
5.63
5.601
5.569
5.534
5.496
5.454
5.41
5.363
5.313
5.261
5.207
5.15
5.092
5.032
4.971
4.908
4.845
4.782
4.719
4.656
4.594
4.533
4.475
4.419
4.365
4.315
5.728
5.72
5.709
5.694
5.675
5.654
5.628
5.6
5.568
5.533
5.495
5.454
5.41
5.364
5.315
5.263
5.209
5.153
5.095
5.035
4.974
4.912
4.85
4.787
4.724
4.662
4.601
4.541
4.482
4.427
4.374
4.324
5.725
5.718
5.706
5.691
5.673
5.652
5.627
5.599
5.567
5.533
5.495
5.454
5.411
5.365
5.316
5.265
5.212
5.156
5.099
5.04
4.98
4.919
4.857
4.795
4.733
4.671
4.61
4.551
4.494
4.439
4.387
4.338
5.653
5.645
5.634
5.618
5.599
5.576
5.55
5.521
5.488
5.452
5.412
5.37
5.324
5.276
5.225
5.172
5.117
5.059
5
4.939
4.877
4.814
4.751
4.687
4.623
4.561
4.499
4.439
4.381
4.325
4.272
4.223
5.652
5.645
5.633
5.617
5.598
5.576
5.55
5.52
5.488
5.452
5.412
5.37
5.325
5.277
5.226
5.173
5.118
5.06
5.001
4.941
4.879
4.816
4.753
4.69
4.626
4.564
4.502
4.443
4.385
4.329
4.277
4.228
5.651
5.643
5.631
5.616
5.597
5.575
5.549
5.52
5.487
5.451
5.412
5.37
5.325
5.278
5.228
5.175
5.12
5.063
5.004
4.944
4.883
4.821
4.758
4.695
4.632
4.57
4.509
4.45
4.392
4.338
4.286
4.237
5.648
5.641
5.629
5.614
5.595
5.573
5.548
5.519
5.486
5.451
5.412
5.371
5.326
5.279
5.23
5.177
5.123
5.067
5.009
4.949
4.889
4.827
4.765
4.703
4.641
4.58
4.52
4.461
4.404
4.35
4.298
4.251
5.577
5.569
5.557
5.541
5.522
5.499
5.472
5.442
5.408
5.371
5.33
5.287
5.24
5.191
5.139
5.085
5.028
4.97
4.91
4.848
4.786
4.722
4.659
4.595
4.531
4.469
4.407
4.348
4.29
4.235
4.183
4.135
5.576
5.569
5.557
5.541
5.521
5.498
5.471
5.441
5.408
5.371
5.33
5.287
5.241
5.192
5.14
5.086
5.03
4.971
4.912
4.85
4.788
4.725
4.661
4.598
4.534
4.472
4.411
4.351
4.294
4.239
4.188
4.14
5.575
5.567
5.555
5.54
5.52
5.497
5.471
5.441
5.407
5.371
5.331
5.288
5.242
5.193
5.142
5.088
5.032
4.974
4.915
4.854
4.792
4.729
4.666
4.603
4.541
4.479
4.418
4.359
4.302
4.248
4.197
4.149
5.573
5.565
5.554
5.538
5.519
5.496
5.47
5.44
5.407
5.371
5.331
5.288
5.243
5.195
5.144
5.091
5.036
4.979
4.92
4.86
4.798
4.736
4.674
4.612
4.55
4.489
4.429
4.37
4.314
4.261
4.21
4.163
5.503
5.495
5.483
5.466
5.446
5.422
5.395
5.364
5.329
5.291
5.249
5.205
5.157
5.107
5.054
4.999
4.941
4.882
4.821
4.758
4.695
4.631
4.567
4.503
4.439
4.377
4.316
4.256
4.199
4.145
4.094
4.046
5.502
5.494
5.482
5.466
5.446
5.422
5.395
5.364
5.329
5.291
5.25
5.205
5.158
5.108
5.055
5
4.942
4.883
4.822
4.76
4.697
4.634
4.57
4.506
4.443
4.38
4.319
4.26
4.203
4.149
4.098
4.051
5.501
5.493
5.481
5.465
5.445
5.421
5.394
5.363
5.329
5.291
5.25
5.206
5.159
5.109
5.057
5.002
4.945
4.886
4.826
4.764
4.702
4.639
4.575
4.512
4.449
4.387
4.327
4.268
4.212
4.158
4.107
4.06
5.499
5.491
5.479
5.463
5.444
5.42
5.393
5.363
5.329
5.291
5.251
5.207
5.161
5.111
5.06
5.005
4.949
4.891
4.831
4.77
4.709
4.646
4.583
4.521
4.459
4.398
4.338
4.28
4.224
4.171
4.121
4.074
5.43
5.422
5.409
5.393
5.372
5.348
5.319
5.287
5.252
5.212
5.17
5.124
5.075
5.024
4.97
4.913
4.855
4.794
4.732
4.669
4.605
4.54
4.476
4.411
4.348
4.285
4.224
4.165
4.108
4.054
4.003
3.956
5.429
5.422
5.409
5.392
5.372
5.347
5.319
5.287
5.252
5.213
5.17
5.125
5.076
5.025
4.971
4.914
4.856
4.796
4.734
4.671
4.607
4.543
4.479
4.414
4.351
4.289
4.228
4.169
4.112
4.058
4.008
3.961
5.428
5.421
5.408
5.392
5.371
5.347
5.319
5.287
5.252
5.213
5.171
5.126
5.078
5.027
4.973
4.917
4.859
4.799
4.738
4.675
4.612
4.548
4.484
4.421
4.358
4.296
4.235
4.177
4.121
4.067
4.017
3.971
5.427
5.419
5.407
5.39
5.37
5.346
5.318
5.287
5.252
5.214
5.172
5.127
5.08
5.029
4.976
4.921
4.863
4.804
4.744
4.682
4.619
4.556
4.493
4.43
4.368
4.307
4.247
4.189
4.133
4.081
4.031
3.985
5.359
5.351
5.338
5.321
5.299
5.274
5.245
5.212
5.176
5.135
5.092
5.045
4.995
4.942
4.886
4.829
4.769
4.707
4.644
4.58
4.515
4.45
4.385
4.32
4.256
4.193
4.132
4.073
4.016
3.963
3.912
3.865
5.358
5.35
5.337
5.32
5.299
5.274
5.245
5.212
5.176
5.136
5.092
5.045
4.995
4.943
4.888
4.83
4.77
4.709
4.646
4.582
4.518
4.453
4.388
4.323
4.259
4.197
4.136
4.077
4.021
3.967
3.917
3.871
5.357
5.349
5.337
5.32
5.299
5.274
5.245
5.212
5.176
5.136
5.093
5.046
4.997
4.945
4.89
4.833
4.774
4.713
4.65
4.587
4.523
4.458
4.394
4.33
4.266
4.204
4.144
4.085
4.029
3.976
3.927
3.88
5.356
5.348
5.335
5.318
5.298
5.273
5.245
5.212
5.176
5.137
5.094
5.048
4.999
4.948
4.893
4.837
4.778
4.718
4.657
4.594
4.53
4.467
4.403
4.339
4.277
4.215
4.156
4.098
4.043
3.99
3.941
3.895
5.289
5.281
5.267
5.25
5.228
5.202
5.172
5.138
5.101
5.059
5.014
4.966
4.915
4.861
4.804
4.745
4.684
4.621
4.557
4.492
4.426
4.36
4.294
4.228
4.164
4.101
4.04
3.98
3.924
3.87
3.82
3.774
5.288
5.28
5.267
5.25
5.228
5.202
5.172
5.139
5.101
5.06
5.015
4.967
4.916
4.862
4.805
4.746
4.685
4.623
4.559
4.494
4.429
4.363
4.297
4.232
4.168
4.105
4.044
3.985
3.929
3.875
3.825
3.779
5.288
5.279
5.266
5.249
5.228
5.202
5.172
5.139
5.101
5.06
5.016
4.968
4.917
4.864
4.808
4.749
4.689
4.627
4.563
4.499
4.434
4.369
4.303
4.239
4.175
4.113
4.052
3.994
3.938
3.885
3.835
3.789
5.286
5.278
5.265
5.248
5.227
5.201
5.172
5.139
5.102
5.061
5.017
4.97
4.92
4.867
4.812
4.754
4.694
4.633
4.57
4.506
4.442
4.377
4.313
4.249
4.186
4.124
4.064
4.006
3.951
3.899
3.85
3.805
5.22
5.212
5.199
5.181
5.158
5.132
5.101
5.066
5.027
4.984
4.938
4.889
4.836
4.78
4.722
4.662
4.599
4.535
4.47
4.403
4.337
4.27
4.203
4.137
4.072
4.009
3.947
3.888
3.831
3.778
3.728
3.682
5.22
5.212
5.198
5.18
5.158
5.132
5.101
5.066
5.027
4.985
4.939
4.889
4.837
4.781
4.723
4.663
4.601
4.537
4.472
4.406
4.34
4.273
4.206
4.141
4.076
4.013
3.951
3.892
3.836
3.783
3.733
3.687
5.219
5.211
5.198
5.18
5.158
5.131
5.101
5.066
5.028
4.986
4.94
4.891
4.839
4.784
4.726
4.667
4.605
4.541
4.477
4.411
4.345
4.279
4.213
4.148
4.083
4.021
3.96
3.901
3.845
3.792
3.743
3.697
5.218
5.21
5.197
5.179
5.157
5.131
5.101
5.067
5.029
4.987
4.942
4.893
4.842
4.787
4.731
4.671
4.61
4.548
4.484
4.419
4.354
4.288
4.223
4.158
4.095
4.033
3.973
3.915
3.859
3.807
3.758
3.713
5.153
5.145
5.131
5.113
5.09
5.062
5.031
4.995
4.954
4.911
4.863
4.812
4.758
4.701
4.641
4.579
4.515
4.45
4.383
4.316
4.248
4.18
4.112
4.045
3.98
3.916
3.854
3.795
3.738
3.684
3.634
3.589
5.153
5.145
5.131
5.113
5.09
5.062
5.031
4.995
4.955
4.911
4.864
4.813
4.759
4.702
4.643
4.581
4.517
4.452
4.386
4.318
4.251
4.183
4.116
4.049
3.984
3.92
3.858
3.799
3.743
3.689
3.64
3.594
5.152
5.144
5.13
5.112
5.089
5.062
5.031
4.995
4.956
4.912
4.865
4.815
4.761
4.705
4.646
4.584
4.521
4.457
4.391
4.324
4.257
4.19
4.123
4.057
3.992
3.929
3.867
3.808
3.752
3.7
3.65
3.605
5.151
5.143
5.13
5.112
5.089
5.062
5.031
4.996
4.957
4.914
4.867
4.817
4.764
4.709
4.65
4.59
4.527
4.463
4.398
4.332
4.266
4.199
4.133
4.068
4.004
3.941
3.88
3.822
3.767
3.715
3.666
3.621
5.088
5.079
5.065
5.046
5.022
4.994
4.961
4.924
4.883
4.838
4.789
4.736
4.68
4.622
4.561
4.497
4.432
4.365
4.297
4.228
4.159
4.09
4.021
3.954
3.888
3.823
3.761
3.701
3.644
3.59
3.54
3.494
5.087
5.079
5.065
5.046
5.022
4.994
4.962
4.925
4.883
4.838
4.79
4.737
4.682
4.623
4.562
4.499
4.434
4.367
4.299
4.231
4.162
4.093
4.025
3.958
3.892
3.827
3.765
3.706
3.649
3.596
3.546
3.5
5.087
5.078
5.065
5.046
5.022
4.994
4.962
4.925
4.884
4.84
4.791
4.739
4.684
4.626
4.566
4.503
4.438
4.372
4.305
4.237
4.168
4.1
4.032
3.965
3.9
3.836
3.774
3.715
3.659
3.606
3.557
3.511
5.086
5.078
5.064
5.045
5.022
4.995
4.962
4.926
4.886
4.841
4.794
4.742
4.688
4.63
4.571
4.508
4.445
4.379
4.313
4.245
4.178
4.11
4.043
3.977
3.912
3.849
3.788
3.73
3.674
3.621
3.573
3.528
5.023
5.015
5
4.981
4.956
4.927
4.894
4.855
4.813
4.766
4.715
4.661
4.604
4.544
4.481
4.416
4.349
4.28
4.211
4.141
4.07
4
3.93
3.862
3.795
3.73
3.667
3.607
3.549
3.496
3.445
3.399
5.023
5.014
5
4.981
4.956
4.927
4.894
4.856
4.813
4.767
4.716
4.662
4.605
4.545
4.483
4.418
4.351
4.283
4.214
4.144
4.074
4.004
3.934
3.866
3.799
3.734
3.672
3.612
3.555
3.501
3.451
3.405
5.023
5.014
5
4.981
4.957
4.928
4.894
4.856
4.814
4.768
4.718
4.665
4.608
4.548
4.486
4.422
4.356
4.288
4.219
4.15
4.08
4.011
3.942
3.874
3.808
3.743
3.681
3.621
3.565
3.512
3.462
3.417
5.022
5.013
4.999
4.98
4.957
4.928
4.895
4.857
4.816
4.77
4.721
4.668
4.612
4.553
4.491
4.428
4.362
4.295
4.227
4.159
4.09
4.021
3.953
3.886
3.821
3.757
3.695
3.636
3.58
3.528
3.479
3.434
4.96
4.951
4.937
4.917
4.892
4.862
4.827
4.787
4.743
4.695
4.643
4.587
4.528
4.466
4.402
4.335
4.266
4.196
4.125
4.053
3.982
3.91
3.839
3.77
3.702
3.636
3.572
3.512
3.454
3.4
3.35
3.304
4.96
4.951
4.937
4.917
4.892
4.862
4.827
4.788
4.744
4.696
4.644
4.588
4.53
4.468
4.403
4.337
4.268
4.199
4.128
4.057
3.985
3.914
3.843
3.774
3.706
3.641
3.577
3.517
3.459
3.406
3.356
3.31
4.96
4.951
4.936
4.917
4.892
4.862
4.828
4.789
4.745
4.697
4.646
4.591
4.532
4.471
4.407
4.341
4.273
4.204
4.134
4.063
3.992
3.921
3.851
3.783
3.715
3.65
3.587
3.527
3.47
3.417
3.367
3.321
4.959
4.951
4.936
4.917
4.892
4.863
4.828
4.79
4.747
4.7
4.649
4.594
4.537
4.476
4.413
4.348
4.28
4.212
4.142
4.072
4.002
3.932
3.863
3.795
3.729
3.664
3.602
3.543
3.486
3.433
3.384
3.339
4.898
4.889
4.874
4.854
4.828
4.797
4.761
4.72
4.675
4.625
4.571
4.514
4.453
4.389
4.323
4.254
4.184
4.112
4.039
3.966
3.893
3.82
3.748
3.677
3.609
3.542
3.478
3.416
3.358
3.304
3.253
3.207
4.898
4.889
4.874
4.854
4.828
4.797
4.761
4.721
4.675
4.626
4.572
4.515
4.455
4.391
4.325
4.256
4.186
4.115
4.042
3.969
3.896
3.824
3.752
3.682
3.613
3.547
3.483
3.422
3.364
3.31
3.259
3.213
4.898
4.889
4.874
4.854
4.828
4.798
4.762
4.722
4.677
4.628
4.575
4.518
4.458
4.395
4.329
4.261
4.191
4.12
4.048
3.976
3.904
3.832
3.761
3.691
3.623
3.556
3.493
3.432
3.375
3.321
3.271
3.225
4.898
4.889
4.874
4.854
4.829
4.798
4.763
4.723
4.679
4.63
4.578
4.522
4.462
4.4
4.335
4.268
4.199
4.129
4.058
3.986
3.914
3.843
3.773
3.704
3.636
3.571
3.508
3.448
3.391
3.338
3.289
3.243
4.838
4.829
4.813
4.792
4.766
4.734
4.696
4.654
4.607
4.556
4.5
4.441
4.379
4.313
4.244
4.174
4.102
4.028
3.954
3.879
3.804
3.73
3.657
3.585
3.515
3.447
3.382
3.32
3.262
3.207
3.156
3.109
4.838
4.829
4.813
4.792
4.766
4.734
4.697
4.655
4.608
4.557
4.502
4.443
4.38
4.315
4.247
4.176
4.104
4.031
3.957
3.882
3.808
3.734
3.661
3.589
3.52
3.452
3.388
3.326
3.267
3.213
3.162
3.116
4.838
4.829
4.813
4.792
4.766
4.734
4.698
4.656
4.61
4.559
4.504
4.445
4.383
4.318
4.251
4.181
4.11
4.037
3.963
3.889
3.815
3.742
3.67
3.599
3.529
3.462
3.398
3.337
3.279
3.225
3.174
3.128
4.837
4.828
4.813
4.793
4.767
4.735
4.699
4.658
4.612
4.562
4.507
4.45
4.388
4.324
4.257
4.188
4.118
4.046
3.973
3.9
3.827
3.754
3.682
3.612
3.544
3.478
3.414
3.353
3.296
3.242
3.192
3.147
4.779
4.769
4.753
4.732
4.704
4.671
4.633
4.589
4.541
4.488
4.43
4.369
4.305
4.237
4.167
4.094
4.02
3.944
3.868
3.792
3.715
3.639
3.565
3.492
3.421
3.352
3.286
3.224
3.164
3.109
3.058
3.011
4.779
4.769
4.754
4.732
4.704
4.672
4.633
4.59
4.542
4.489
4.432
4.371
4.306
4.239
4.169
4.097
4.023
3.947
3.871
3.795
3.719
3.644
3.569
3.497
3.426
3.357
3.292
3.229
3.17
3.115
3.064
3.018
4.779
4.769
4.754
4.732
4.705
4.672
4.634
4.591
4.543
4.491
4.434
4.374
4.31
4.243
4.173
4.102
4.028
3.954
3.878
3.803
3.727
3.652
3.578
3.506
3.436
3.368
3.303
3.241
3.182
3.127
3.077
3.03
4.778
4.769
4.754
4.732
4.705
4.673
4.636
4.593
4.546
4.494
4.438
4.378
4.315
4.249
4.18
4.109
4.037
3.963
3.888
3.813
3.739
3.665
3.592
3.52
3.451
3.384
3.319
3.258
3.2
3.146
3.096
3.05
4.72
4.711
4.695
4.672
4.644
4.61
4.57
4.525
4.475
4.42
4.361
4.298
4.231
4.161
4.089
4.014
3.938
3.861
3.783
3.704
3.626
3.549
3.473
3.398
3.326
3.257
3.19
3.126
3.067
3.011
2.959
2.912
4.72
4.711
4.695
4.672
4.644
4.61
4.571
4.526
4.476
4.421
4.362
4.299
4.233
4.164
4.091
4.017
3.941
3.864
3.786
3.708
3.63
3.553
3.478
3.403
3.332
3.262
3.196
3.132
3.073
3.017
2.966
2.919
4.72
4.711
4.695
4.673
4.645
4.611
4.572
4.527
4.478
4.423
4.365
4.303
4.237
4.168
4.096
4.022
3.947
3.87
3.793
3.716
3.639
3.562
3.487
3.413
3.342
3.273
3.207
3.144
3.085
3.03
2.979
2.932
4.72
4.711
4.695
4.673
4.645
4.612
4.573
4.529
4.48
4.427
4.369
4.307
4.242
4.174
4.103
4.03
3.956
3.88
3.804
3.727
3.651
3.575
3.501
3.428
3.357
3.289
3.224
3.162
3.103
3.049
2.998
2.952
5.041
5.107
5.075
5.17
5.139
5.109
5.227
5.198
5.17
5.144
5.276
5.249
5.224
5.199
5.177
5.314
5.29
5.267
5.245
5.224
5.205
6.041
6.034
6.024
6.011
5.994
5.975
5.953
5.928
5.9
5.869
5.836
5.799
5.76
5.718
5.673
5.626
5.577
5.525
5.471
5.415
5.357
5.297
5.237
5.175
5.113
5.05
4.988
4.926
4.866
4.807
4.751
4.698
6.034
6.027
6.017
6.004
5.988
5.969
5.947
5.923
5.895
5.865
5.832
5.796
5.758
5.716
5.673
5.626
5.578
5.527
5.474
5.419
5.362
5.304
5.245
5.184
5.123
5.062
5.001
4.941
4.882
4.825
4.77
4.718
6.025
6.019
6.009
5.996
5.98
5.962
5.94
5.916
5.889
5.86
5.827
5.792
5.755
5.714
5.672
5.626
5.579
5.529
5.477
5.424
5.368
5.311
5.253
5.195
5.135
5.076
5.016
4.958
4.901
4.845
4.792
4.741
6.015
6.008
5.999
5.986
5.971
5.953
5.932
5.908
5.882
5.853
5.822
5.788
5.751
5.712
5.67
5.626
5.579
5.531
5.481
5.428
5.375
5.32
5.263
5.206
5.149
5.091
5.033
4.977
4.921
4.868
4.816
4.768
6.002
5.996
5.987
5.974
5.96
5.942
5.922
5.899
5.874
5.845
5.815
5.782
5.746
5.708
5.667
5.625
5.58
5.533
5.484
5.433
5.381
5.328
5.274
5.219
5.163
5.107
5.052
4.997
4.944
4.892
4.843
4.796
5.988
5.982
5.973
5.961
5.946
5.929
5.91
5.888
5.863
5.836
5.806
5.774
5.74
5.703
5.664
5.623
5.579
5.534
5.487
5.438
5.388
5.337
5.285
5.232
5.178
5.125
5.072
5.019
4.968
4.919
4.872
4.827
5.971
5.965
5.956
5.945
5.931
5.915
5.896
5.875
5.851
5.825
5.796
5.765
5.732
5.697
5.659
5.62
5.578
5.535
5.49
5.443
5.395
5.346
5.296
5.245
5.194
5.143
5.092
5.042
4.994
4.947
4.902
4.859
5.952
5.946
5.938
5.927
5.913
5.898
5.88
5.859
5.837
5.812
5.784
5.755
5.723
5.689
5.653
5.616
5.576
5.534
5.491
5.447
5.401
5.354
5.307
5.258
5.21
5.162
5.114
5.066
5.02
4.976
4.933
4.893
5.93
5.924
5.916
5.906
5.893
5.878
5.861
5.842
5.82
5.796
5.77
5.742
5.712
5.68
5.646
5.61
5.572
5.533
5.492
5.45
5.406
5.362
5.317
5.272
5.226
5.18
5.135
5.091
5.047
5.005
4.966
4.928
5.905
5.9
5.892
5.882
5.87
5.856
5.84
5.821
5.801
5.779
5.754
5.727
5.699
5.668
5.636
5.602
5.567
5.53
5.491
5.451
5.411
5.369
5.327
5.284
5.241
5.199
5.157
5.115
5.075
5.036
4.999
4.964
5.877
5.872
5.864
5.855
5.844
5.831
5.816
5.798
5.779
5.758
5.735
5.71
5.683
5.655
5.624
5.593
5.559
5.525
5.489
5.452
5.414
5.375
5.336
5.296
5.256
5.217
5.178
5.139
5.102
5.066
5.032
5
5.844
5.84
5.833
5.825
5.814
5.802
5.788
5.772
5.754
5.735
5.713
5.69
5.665
5.638
5.61
5.581
5.55
5.518
5.484
5.45
5.415
5.379
5.343
5.307
5.27
5.234
5.198
5.164
5.13
5.097
5.066
5.037
5.808
5.804
5.798
5.791
5.781
5.77
5.757
5.743
5.726
5.708
5.688
5.667
5.643
5.619
5.593
5.566
5.537
5.508
5.477
5.446
5.414
5.382
5.349
5.316
5.283
5.25
5.218
5.187
5.156
5.127
5.1
5.074
5.768
5.765
5.76
5.753
5.745
5.735
5.723
5.71
5.695
5.678
5.66
5.64
5.619
5.597
5.573
5.548
5.522
5.495
5.468
5.44
5.411
5.382
5.352
5.323
5.294
5.265
5.236
5.209
5.182
5.157
5.132
5.11
5.728
5.726
5.722
5.716
5.709
5.7
5.689
5.677
5.663
5.648
5.631
5.613
5.593
5.573
5.551
5.529
5.505
5.481
5.456
5.43
5.405
5.378
5.352
5.326
5.3
5.275
5.25
5.226
5.203
5.181
5.16
5.141
5.959
5.952
5.942
5.928
5.911
5.892
5.869
5.843
5.815
5.783
5.749
5.711
5.671
5.628
5.583
5.535
5.485
5.432
5.378
5.321
5.263
5.203
5.143
5.081
5.02
4.958
4.896
4.836
4.776
4.719
4.664
4.613
5.953
5.946
5.936
5.922
5.906
5.886
5.864
5.839
5.811
5.78
5.746
5.709
5.67
5.628
5.583
5.536
5.487
5.435
5.381
5.326
5.269
5.211
5.151
5.091
5.031
4.97
4.91
4.851
4.793
4.737
4.683
4.633
5.945
5.938
5.928
5.915
5.899
5.88
5.858
5.833
5.806
5.775
5.742
5.706
5.668
5.626
5.583
5.537
5.489
5.438
5.386
5.332
5.276
5.219
5.161
5.103
5.044
4.985
4.926
4.868
4.812
4.758
4.706
4.657
5.935
5.929
5.919
5.906
5.89
5.872
5.85
5.826
5.799
5.77
5.737
5.702
5.665
5.625
5.582
5.537
5.491
5.441
5.391
5.338
5.284
5.229
5.172
5.115
5.058
5.001
4.944
4.888
4.834
4.781
4.731
4.683
5.924
5.918
5.908
5.895
5.88
5.862
5.841
5.818
5.792
5.763
5.732
5.698
5.661
5.622
5.581
5.538
5.492
5.445
5.395
5.344
5.292
5.239
5.184
5.129
5.074
5.019
4.964
4.91
4.857
4.807
4.758
4.713
5.911
5.905
5.895
5.883
5.868
5.851
5.831
5.808
5.783
5.755
5.725
5.692
5.657
5.619
5.579
5.537
5.493
5.448
5.4
5.351
5.3
5.249
5.197
5.144
5.09
5.037
4.985
4.933
4.883
4.834
4.788
4.744
5.896
5.889
5.88
5.869
5.854
5.837
5.818
5.796
5.772
5.745
5.716
5.685
5.651
5.615
5.576
5.536
5.494
5.45
5.404
5.357
5.309
5.259
5.209
5.159
5.108
5.057
5.007
4.958
4.91
4.863
4.819
4.778
5.878
5.872
5.863
5.852
5.838
5.822
5.804
5.783
5.759
5.734
5.706
5.676
5.643
5.609
5.572
5.534
5.493
5.451
5.408
5.363
5.317
5.27
5.222
5.174
5.126
5.078
5.03
4.983
4.938
4.894
4.852
4.813
5.857
5.852
5.843
5.833
5.82
5.804
5.787
5.767
5.745
5.72
5.694
5.665
5.634
5.602
5.567
5.53
5.492
5.452
5.411
5.368
5.325
5.28
5.235
5.189
5.144
5.098
5.053
5.009
4.967
4.926
4.886
4.85
5.834
5.829
5.821
5.811
5.798
5.784
5.767
5.749
5.728
5.705
5.68
5.652
5.623
5.592
5.559
5.525
5.489
5.451
5.412
5.372
5.331
5.289
5.247
5.204
5.162
5.119
5.077
5.036
4.996
4.958
4.921
4.887
5.808
5.803
5.795
5.786
5.774
5.761
5.745
5.728
5.708
5.686
5.663
5.637
5.61
5.581
5.55
5.518
5.484
5.449
5.413
5.375
5.337
5.298
5.259
5.219
5.179
5.14
5.101
5.063
5.026
4.991
4.957
4.925
5.778
5.773
5.766
5.758
5.747
5.735
5.72
5.704
5.686
5.665
5.644
5.62
5.594
5.567
5.539
5.509
5.477
5.445
5.411
5.376
5.341
5.305
5.269
5.232
5.196
5.16
5.124
5.09
5.056
5.024
4.993
4.964
5.744
5.74
5.734
5.726
5.717
5.705
5.692
5.677
5.66
5.641
5.621
5.599
5.576
5.551
5.524
5.497
5.468
5.438
5.407
5.376
5.343
5.311
5.278
5.245
5.212
5.179
5.147
5.116
5.086
5.057
5.029
5.004
5.706
5.703
5.698
5.691
5.683
5.673
5.661
5.647
5.631
5.614
5.596
5.576
5.554
5.531
5.507
5.482
5.456
5.429
5.401
5.372
5.343
5.314
5.284
5.255
5.226
5.197
5.168
5.141
5.114
5.089
5.065
5.042
5.668
5.666
5.662
5.656
5.649
5.64
5.629
5.616
5.602
5.587
5.57
5.551
5.532
5.511
5.489
5.466
5.442
5.417
5.392
5.366
5.34
5.314
5.288
5.261
5.235
5.21
5.185
5.161
5.138
5.116
5.095
5.076
5.879
5.872
5.861
5.847
5.83
5.809
5.786
5.76
5.73
5.698
5.663
5.624
5.583
5.54
5.493
5.445
5.394
5.341
5.285
5.228
5.17
5.11
5.05
4.988
4.927
4.866
4.805
4.745
4.687
4.631
4.577
4.527
5.873
5.866
5.855
5.842
5.825
5.805
5.782
5.756
5.727
5.695
5.66
5.623
5.583
5.54
5.494
5.447
5.396
5.344
5.29
5.234
5.177
5.118
5.059
4.999
4.939
4.879
4.819
4.761
4.704
4.649
4.597
4.548
5.866
5.859
5.848
5.835
5.818
5.799
5.776
5.751
5.723
5.692
5.658
5.621
5.582
5.54
5.495
5.448
5.399
5.348
5.296
5.241
5.185
5.128
5.07
5.011
4.953
4.894
4.836
4.779
4.724
4.671
4.62
4.572
5.857
5.85
5.84
5.827
5.811
5.792
5.77
5.745
5.718
5.687
5.654
5.618
5.58
5.539
5.496
5.45
5.403
5.353
5.301
5.248
5.194
5.138
5.082
5.025
4.968
4.911
4.855
4.8
4.746
4.695
4.646
4.599
5.847
5.84
5.83
5.817
5.802
5.783
5.762
5.738
5.711
5.682
5.649
5.615
5.578
5.538
5.496
5.452
5.405
5.357
5.307
5.256
5.203
5.15
5.095
5.04
4.985
4.93
4.876
4.823
4.771
4.721
4.674
4.629
5.835
5.828
5.819
5.806
5.791
5.773
5.752
5.729
5.703
5.675
5.644
5.61
5.574
5.536
5.495
5.453
5.408
5.362
5.314
5.264
5.213
5.162
5.109
5.056
5.003
4.95
4.898
4.847
4.798
4.75
4.704
4.662
5.821
5.814
5.805
5.793
5.778
5.761
5.741
5.719
5.694
5.667
5.637
5.604
5.57
5.533
5.494
5.453
5.41
5.366
5.32
5.272
5.223
5.174
5.124
5.073
5.022
4.972
4.922
4.873
4.826
4.78
4.737
4.696
5.804
5.798
5.789
5.778
5.764
5.747
5.728
5.707
5.683
5.657
5.628
5.597
5.564
5.529
5.492
5.453
5.412
5.369
5.325
5.28
5.233
5.186
5.138
5.09
5.042
4.994
4.947
4.9
4.856
4.812
4.771
4.733
5.785
5.78
5.771
5.76
5.747
5.731
5.713
5.693
5.67
5.645
5.618
5.588
5.557
5.524
5.488
5.451
5.412
5.372
5.33
5.287
5.243
5.198
5.153
5.108
5.062
5.017
4.972
4.929
4.886
4.846
4.807
4.771
5.764
5.758
5.75
5.74
5.727
5.712
5.695
5.676
5.655
5.631
5.605
5.578
5.548
5.516
5.483
5.448
5.411
5.373
5.334
5.293
5.252
5.21
5.168
5.125
5.082
5.04
4.998
4.957
4.918
4.88
4.844
4.81
5.739
5.734
5.726
5.717
5.705
5.691
5.675
5.657
5.637
5.615
5.591
5.565
5.537
5.507
5.476
5.443
5.409
5.373
5.337
5.299
5.26
5.221
5.181
5.142
5.102
5.063
5.024
4.986
4.95
4.915
4.881
4.85
5.711
5.706
5.699
5.691
5.68
5.667
5.652
5.635
5.617
5.596
5.574
5.55
5.524
5.496
5.467
5.437
5.405
5.372
5.338
5.303
5.267
5.231
5.194
5.158
5.121
5.085
5.05
5.015
4.982
4.95
4.92
4.891
5.68
5.675
5.669
5.661
5.651
5.64
5.626
5.611
5.594
5.575
5.554
5.532
5.508
5.482
5.456
5.427
5.398
5.368
5.337
5.305
5.272
5.239
5.206
5.173
5.14
5.107
5.075
5.044
5.014
4.985
4.958
4.933
5.644
5.641
5.636
5.629
5.62
5.61
5.597
5.583
5.568
5.55
5.531
5.511
5.489
5.466
5.441
5.416
5.389
5.362
5.334
5.305
5.275
5.246
5.216
5.186
5.157
5.128
5.099
5.072
5.045
5.02
4.996
4.974
5.608
5.606
5.602
5.596
5.589
5.579
5.568
5.555
5.541
5.525
5.508
5.489
5.469
5.448
5.425
5.402
5.378
5.353
5.328
5.302
5.275
5.249
5.222
5.196
5.17
5.144
5.119
5.095
5.071
5.049
5.029
5.01
5.799
5.792
5.781
5.767
5.749
5.728
5.705
5.677
5.647
5.614
5.578
5.539
5.497
5.452
5.405
5.356
5.304
5.25
5.194
5.137
5.078
5.018
4.957
4.896
4.835
4.774
4.714
4.655
4.598
4.543
4.49
4.441
5.794
5.787
5.776
5.762
5.745
5.724
5.701
5.674
5.645
5.612
5.576
5.538
5.497
5.453
5.407
5.358
5.307
5.254
5.2
5.143
5.086
5.027
4.967
4.908
4.848
4.788
4.729
4.671
4.615
4.562
4.51
4.462
5.788
5.781
5.77
5.756
5.739
5.719
5.696
5.67
5.641
5.609
5.574
5.537
5.497
5.454
5.409
5.361
5.311
5.26
5.206
5.151
5.095
5.037
4.979
4.921
4.862
4.804
4.747
4.69
4.636
4.584
4.534
4.487
5.78
5.773
5.763
5.749
5.733
5.713
5.691
5.665
5.637
5.606
5.572
5.535
5.496
5.454
5.41
5.364
5.315
5.265
5.213
5.159
5.105
5.049
4.992
4.936
4.879
4.822
4.767
4.712
4.659
4.608
4.56
4.515
5.77
5.764
5.754
5.74
5.724
5.705
5.684
5.659
5.631
5.601
5.568
5.533
5.495
5.454
5.412
5.367
5.32
5.271
5.22
5.169
5.115
5.062
5.007
4.952
4.897
4.842
4.789
4.736
4.685
4.636
4.589
4.546
5.759
5.753
5.743
5.73
5.715
5.696
5.675
5.651
5.625
5.596
5.564
5.529
5.493
5.454
5.412
5.369
5.324
5.277
5.228
5.178
5.127
5.075
5.022
4.969
4.916
4.864
4.812
4.762
4.713
4.666
4.621
4.579
5.746
5.74
5.73
5.718
5.703
5.685
5.665
5.642
5.617
5.589
5.558
5.525
5.49
5.452
5.413
5.371
5.327
5.282
5.236
5.188
5.139
5.089
5.038
4.988
4.937
4.887
4.837
4.789
4.742
4.697
4.655
4.615
5.731
5.725
5.716
5.704
5.69
5.673
5.653
5.631
5.607
5.58
5.551
5.519
5.486
5.45
5.412
5.372
5.331
5.287
5.243
5.197
5.15
5.103
5.055
5.007
4.958
4.911
4.864
4.818
4.773
4.731
4.69
4.653
5.714
5.708
5.699
5.688
5.674
5.658
5.64
5.619
5.596
5.57
5.542
5.512
5.48
5.446
5.41
5.372
5.333
5.292
5.25
5.206
5.162
5.117
5.072
5.026
4.98
4.935
4.891
4.848
4.806
4.766
4.728
4.692
5.694
5.688
5.68
5.669
5.656
5.641
5.624
5.604
5.582
5.558
5.532
5.503
5.473
5.441
5.407
5.371
5.334
5.295
5.256
5.215
5.173
5.131
5.088
5.045
5.003
4.96
4.919
4.878
4.839
4.802
4.766
4.733
5.671
5.665
5.658
5.648
5.636
5.622
5.605
5.587
5.566
5.544
5.519
5.493
5.464
5.434
5.402
5.369
5.334
5.298
5.261
5.222
5.184
5.144
5.104
5.065
5.025
4.986
4.947
4.909
4.873
4.838
4.806
4.775
5.645
5.64
5.633
5.623
5.612
5.599
5.584
5.567
5.548
5.527
5.504
5.479
5.453
5.425
5.395
5.364
5.332
5.299
5.264
5.229
5.193
5.157
5.12
5.083
5.047
5.011
4.975
4.941
4.908
4.876
4.846
4.818
5.615
5.611
5.604
5.596
5.586
5.574
5.56
5.545
5.527
5.508
5.487
5.464
5.44
5.414
5.386
5.358
5.328
5.298
5.266
5.234
5.201
5.168
5.134
5.101
5.068
5.035
5.003
4.972
4.942
4.914
4.887
4.862
5.582
5.578
5.573
5.566
5.557
5.546
5.534
5.519
5.503
5.486
5.466
5.446
5.423
5.4
5.375
5.349
5.322
5.294
5.266
5.237
5.207
5.177
5.147
5.117
5.088
5.059
5.03
5.002
4.976
4.951
4.927
4.905
5.548
5.545
5.541
5.535
5.527
5.518
5.507
5.494
5.479
5.463
5.445
5.426
5.406
5.384
5.362
5.338
5.313
5.288
5.262
5.236
5.21
5.183
5.156
5.129
5.103
5.077
5.052
5.028
5.005
4.982
4.962
4.943
5.721
5.714
5.703
5.688
5.67
5.649
5.624
5.597
5.566
5.532
5.495
5.455
5.412
5.366
5.318
5.268
5.215
5.16
5.104
5.046
4.987
4.927
4.866
4.805
4.744
4.683
4.623
4.565
4.509
4.454
4.403
4.355
5.717
5.71
5.699
5.684
5.666
5.645
5.621
5.594
5.564
5.53
5.494
5.454
5.412
5.368
5.321
5.271
5.219
5.166
5.11
5.053
4.995
4.936
4.877
4.817
4.757
4.698
4.639
4.582
4.527
4.474
4.424
4.377
5.711
5.704
5.693
5.679
5.661
5.641
5.617
5.591
5.561
5.528
5.492
5.454
5.413
5.369
5.323
5.275
5.224
5.172
5.118
5.062
5.005
4.948
4.889
4.831
4.772
4.714
4.658
4.602
4.548
4.496
4.447
4.402
5.704
5.697
5.686
5.672
5.655
5.635
5.612
5.586
5.557
5.525
5.491
5.453
5.413
5.371
5.326
5.278
5.229
5.178
5.126
5.071
5.016
4.96
4.904
4.847
4.79
4.734
4.678
4.624
4.572
4.522
4.475
4.43
5.695
5.688
5.678
5.665
5.648
5.629
5.606
5.581
5.553
5.522
5.488
5.452
5.413
5.372
5.328
5.282
5.235
5.185
5.134
5.082
5.028
4.974
4.919
4.864
4.809
4.755
4.701
4.649
4.599
4.55
4.505
4.462
5.685
5.678
5.668
5.655
5.639
5.62
5.599
5.574
5.547
5.517
5.485
5.45
5.412
5.372
5.33
5.286
5.24
5.192
5.143
5.093
5.041
4.989
4.936
4.883
4.83
4.778
4.726
4.676
4.628
4.581
4.537
4.496
5.673
5.667
5.657
5.644
5.629
5.611
5.59
5.566
5.54
5.512
5.48
5.447
5.41
5.372
5.332
5.289
5.245
5.199
5.152
5.104
5.054
5.004
4.954
4.903
4.852
4.802
4.753
4.705
4.659
4.614
4.572
4.533
5.659
5.653
5.643
5.631
5.617
5.599
5.579
5.557
5.532
5.504
5.475
5.442
5.408
5.371
5.333
5.292
5.25
5.206
5.161
5.115
5.068
5.02
4.972
4.923
4.875
4.828
4.781
4.735
4.691
4.649
4.609
4.572
5.643
5.637
5.628
5.616
5.602
5.586
5.567
5.546
5.522
5.496
5.467
5.437
5.404
5.369
5.333
5.294
5.254
5.213
5.17
5.126
5.081
5.036
4.99
4.945
4.899
4.854
4.81
4.767
4.725
4.685
4.648
4.613
5.624
5.618
5.61
5.599
5.586
5.57
5.553
5.532
5.51
5.485
5.458
5.43
5.399
5.366
5.331
5.295
5.257
5.218
5.178
5.137
5.094
5.052
5.009
4.966
4.923
4.881
4.84
4.799
4.76
4.723
4.688
4.655
5.603
5.597
5.589
5.579
5.567
5.552
5.536
5.517
5.496
5.473
5.448
5.421
5.392
5.361
5.328
5.294
5.259
5.223
5.185
5.146
5.107
5.067
5.027
4.987
4.948
4.908
4.87
4.833
4.796
4.762
4.729
4.699
5.578
5.573
5.566
5.557
5.545
5.532
5.516
5.499
5.479
5.458
5.435
5.409
5.383
5.354
5.324
5.292
5.26
5.226
5.191
5.155
5.119
5.082
5.045
5.009
4.972
4.936
4.901
4.866
4.833
4.802
4.772
4.744
5.55
5.546
5.539
5.531
5.521
5.509
5.494
5.478
5.461
5.441
5.419
5.396
5.371
5.345
5.317
5.288
5.258
5.227
5.195
5.163
5.129
5.096
5.062
5.029
4.996
4.963
4.931
4.9
4.87
4.842
4.815
4.79
5.519
5.515
5.51
5.503
5.494
5.483
5.47
5.455
5.439
5.421
5.401
5.38
5.357
5.333
5.308
5.282
5.255
5.226
5.197
5.168
5.138
5.108
5.078
5.048
5.018
4.989
4.96
4.933
4.906
4.881
4.857
4.835
5.486
5.484
5.48
5.474
5.466
5.456
5.445
5.431
5.416
5.4
5.382
5.363
5.342
5.32
5.297
5.273
5.248
5.223
5.197
5.17
5.143
5.116
5.089
5.062
5.036
5.01
4.985