/*--------------------------------*- C++ -*----------------------------------*\
  =========                 |
  \\      /  F ield         | OpenFOAM: The Open Source CFD Toolbox
   \\    /   O peration     | Website:  https://openfoam.org
    \\  /    A nd           | Version:  6
     \\/     M anipulation  |
\*---------------------------------------------------------------------------*/
FoamFile
{
    version     2.0;
    format      ascii;
    class       volScalarField;
    location    "5";
    object      Umag;
}
// * * * * * * * * * * * * * * * * * * * * * * * * * * * * * * * * * * * * * //

dimensions      [0 0 0 0 0 0 0];

internalField   nonuniform List<scalar> 
16128
(
4.084e-06
7.448e-06
8.216e-06
8.479e-06
8.693e-06
8.943e-06
9.247e-06
9.61e-06
1.003e-05
1.052e-05
1.107e-05
1.17e-05
1.239e-05
1.317e-05
1.402e-05
1.496e-05
1.6e-05
1.712e-05
1.834e-05
1.966e-05
2.108e-05
2.261e-05
2.423e-05
2.595e-05
2.775e-05
2.964e-05
3.159e-05
3.359e-05
3.561e-05
3.764e-05
3.963e-05
4.156e-05
4.083e-06
7.446e-06
8.214e-06
8.476e-06
8.69e-06
8.94e-06
9.243e-06
9.605e-06
1.003e-05
1.051e-05
1.106e-05
1.168e-05
1.238e-05
1.315e-05
1.4e-05
1.494e-05
1.597e-05
1.709e-05
1.83e-05
1.962e-05
2.103e-05
2.254e-05
2.415e-05
2.586e-05
2.765e-05
2.952e-05
3.146e-05
3.344e-05
3.544e-05
3.745e-05
3.942e-05
4.133e-05
4.081e-06
7.442e-06
8.21e-06
8.471e-06
8.684e-06
8.933e-06
9.236e-06
9.595e-06
1.001e-05
1.05e-05
1.105e-05
1.166e-05
1.235e-05
1.312e-05
1.397e-05
1.49e-05
1.592e-05
1.702e-05
1.823e-05
1.953e-05
2.092e-05
2.242e-05
2.401e-05
2.569e-05
2.746e-05
2.93e-05
3.12e-05
3.315e-05
3.512e-05
3.709e-05
3.902e-05
4.089e-05
4.078e-06
7.437e-06
8.204e-06
8.464e-06
8.676e-06
8.924e-06
9.224e-06
9.581e-06
9.998e-06
1.048e-05
1.102e-05
1.163e-05
1.232e-05
1.308e-05
1.391e-05
1.483e-05
1.584e-05
1.693e-05
1.812e-05
1.94e-05
2.077e-05
2.224e-05
2.38e-05
2.544e-05
2.717e-05
2.897e-05
3.083e-05
3.273e-05
3.465e-05
3.656e-05
3.844e-05
4.026e-05
4.329e-06
7.892e-06
8.698e-06
8.962e-06
9.17e-06
9.411e-06
9.703e-06
1.005e-05
1.045e-05
1.092e-05
1.144e-05
1.203e-05
1.269e-05
1.342e-05
1.423e-05
1.511e-05
1.607e-05
1.711e-05
1.823e-05
1.945e-05
2.074e-05
2.212e-05
2.359e-05
2.512e-05
2.673e-05
2.84e-05
3.012e-05
3.187e-05
3.363e-05
3.538e-05
3.709e-05
3.875e-05
4.328e-06
7.89e-06
8.696e-06
8.96e-06
9.167e-06
9.408e-06
9.699e-06
1.004e-05
1.045e-05
1.091e-05
1.144e-05
1.202e-05
1.268e-05
1.341e-05
1.421e-05
1.509e-05
1.604e-05
1.708e-05
1.82e-05
1.941e-05
2.07e-05
2.207e-05
2.352e-05
2.505e-05
2.665e-05
2.831e-05
3.001e-05
3.174e-05
3.349e-05
3.523e-05
3.693e-05
3.857e-05
4.326e-06
7.887e-06
8.692e-06
8.955e-06
9.162e-06
9.402e-06
9.691e-06
1.004e-05
1.044e-05
1.09e-05
1.142e-05
1.201e-05
1.266e-05
1.338e-05
1.418e-05
1.505e-05
1.6e-05
1.702e-05
1.814e-05
1.933e-05
2.061e-05
2.196e-05
2.34e-05
2.491e-05
2.649e-05
2.812e-05
2.98e-05
3.151e-05
3.323e-05
3.493e-05
3.66e-05
3.821e-05
4.324e-06
7.881e-06
8.686e-06
8.948e-06
9.154e-06
9.392e-06
9.681e-06
1.002e-05
1.042e-05
1.088e-05
1.14e-05
1.198e-05
1.263e-05
1.334e-05
1.413e-05
1.499e-05
1.593e-05
1.694e-05
1.804e-05
1.922e-05
2.047e-05
2.181e-05
2.322e-05
2.47e-05
2.625e-05
2.785e-05
2.949e-05
3.116e-05
3.284e-05
3.451e-05
3.614e-05
3.77e-05
4.565e-06
8.318e-06
9.16e-06
9.425e-06
9.627e-06
9.859e-06
1.014e-05
1.047e-05
1.086e-05
1.13e-05
1.18e-05
1.236e-05
1.298e-05
1.367e-05
1.442e-05
1.525e-05
1.614e-05
1.711e-05
1.815e-05
1.926e-05
2.045e-05
2.17e-05
2.303e-05
2.441e-05
2.585e-05
2.734e-05
2.886e-05
3.04e-05
3.194e-05
3.347e-05
3.496e-05
3.639e-05
4.564e-06
8.316e-06
9.158e-06
9.423e-06
9.625e-06
9.856e-06
1.013e-05
1.047e-05
1.085e-05
1.129e-05
1.179e-05
1.235e-05
1.297e-05
1.366e-05
1.441e-05
1.523e-05
1.612e-05
1.708e-05
1.812e-05
1.923e-05
2.041e-05
2.166e-05
2.297e-05
2.435e-05
2.578e-05
2.726e-05
2.877e-05
3.03e-05
3.183e-05
3.335e-05
3.483e-05
3.625e-05
4.562e-06
8.313e-06
9.154e-06
9.419e-06
9.62e-06
9.85e-06
1.013e-05
1.046e-05
1.084e-05
1.128e-05
1.178e-05
1.233e-05
1.295e-05
1.363e-05
1.438e-05
1.519e-05
1.608e-05
1.703e-05
1.806e-05
1.916e-05
2.033e-05
2.157e-05
2.287e-05
2.423e-05
2.565e-05
2.711e-05
2.86e-05
3.011e-05
3.162e-05
3.311e-05
3.457e-05
3.596e-05
4.56e-06
8.308e-06
9.148e-06
9.412e-06
9.612e-06
9.841e-06
1.012e-05
1.045e-05
1.083e-05
1.126e-05
1.176e-05
1.231e-05
1.292e-05
1.36e-05
1.434e-05
1.514e-05
1.602e-05
1.696e-05
1.798e-05
1.906e-05
2.022e-05
2.144e-05
2.272e-05
2.406e-05
2.545e-05
2.688e-05
2.834e-05
2.982e-05
3.13e-05
3.276e-05
3.419e-05
3.555e-05
4.79e-06
8.724e-06
9.6e-06
9.867e-06
1.006e-05
1.029e-05
1.055e-05
1.087e-05
1.124e-05
1.166e-05
1.213e-05
1.266e-05
1.325e-05
1.39e-05
1.461e-05
1.538e-05
1.622e-05
1.712e-05
1.808e-05
1.91e-05
2.019e-05
2.134e-05
2.254e-05
2.38e-05
2.509e-05
2.643e-05
2.778e-05
2.915e-05
3.051e-05
3.185e-05
3.316e-05
3.441e-05
4.789e-06
8.723e-06
9.598e-06
9.865e-06
1.006e-05
1.028e-05
1.055e-05
1.087e-05
1.123e-05
1.165e-05
1.213e-05
1.266e-05
1.324e-05
1.389e-05
1.46e-05
1.537e-05
1.62e-05
1.709e-05
1.805e-05
1.908e-05
2.016e-05
2.13e-05
2.25e-05
2.375e-05
2.504e-05
2.636e-05
2.771e-05
2.907e-05
3.042e-05
3.175e-05
3.305e-05
3.429e-05
4.787e-06
8.72e-06
9.594e-06
9.861e-06
1.006e-05
1.028e-05
1.054e-05
1.086e-05
1.122e-05
1.164e-05
1.211e-05
1.264e-05
1.323e-05
1.387e-05
1.457e-05
1.534e-05
1.616e-05
1.705e-05
1.8e-05
1.902e-05
2.009e-05
2.123e-05
2.241e-05
2.365e-05
2.492e-05
2.623e-05
2.756e-05
2.891e-05
3.024e-05
3.156e-05
3.284e-05
3.406e-05
4.785e-06
8.715e-06
9.589e-06
9.855e-06
1.005e-05
1.027e-05
1.053e-05
1.085e-05
1.121e-05
1.163e-05
1.21e-05
1.262e-05
1.32e-05
1.384e-05
1.454e-05
1.529e-05
1.611e-05
1.699e-05
1.793e-05
1.894e-05
2e-05
2.111e-05
2.228e-05
2.35e-05
2.476e-05
2.605e-05
2.735e-05
2.867e-05
2.998e-05
3.128e-05
3.253e-05
3.373e-05
5.003e-06
9.11e-06
1.002e-05
1.029e-05
1.048e-05
1.069e-05
1.094e-05
1.125e-05
1.16e-05
1.2e-05
1.245e-05
1.295e-05
1.351e-05
1.412e-05
1.479e-05
1.551e-05
1.629e-05
1.713e-05
1.802e-05
1.897e-05
1.997e-05
2.103e-05
2.212e-05
2.326e-05
2.444e-05
2.564e-05
2.685e-05
2.807e-05
2.929e-05
3.048e-05
3.163e-05
3.273e-05
5.002e-06
9.109e-06
1.002e-05
1.028e-05
1.047e-05
1.069e-05
1.094e-05
1.124e-05
1.159e-05
1.199e-05
1.244e-05
1.295e-05
1.35e-05
1.411e-05
1.478e-05
1.55e-05
1.628e-05
1.711e-05
1.8e-05
1.895e-05
1.995e-05
2.099e-05
2.209e-05
2.322e-05
2.439e-05
2.558e-05
2.679e-05
2.801e-05
2.921e-05
3.04e-05
3.154e-05
3.264e-05
5.001e-06
9.105e-06
1.001e-05
1.028e-05
1.047e-05
1.068e-05
1.094e-05
1.124e-05
1.159e-05
1.198e-05
1.243e-05
1.293e-05
1.349e-05
1.409e-05
1.476e-05
1.547e-05
1.625e-05
1.708e-05
1.796e-05
1.89e-05
1.989e-05
2.093e-05
2.201e-05
2.314e-05
2.429e-05
2.548e-05
2.667e-05
2.787e-05
2.907e-05
3.024e-05
3.137e-05
3.245e-05
4.998e-06
9.101e-06
1.001e-05
1.027e-05
1.046e-05
1.067e-05
1.093e-05
1.123e-05
1.157e-05
1.197e-05
1.242e-05
1.291e-05
1.346e-05
1.407e-05
1.472e-05
1.543e-05
1.62e-05
1.702e-05
1.79e-05
1.883e-05
1.981e-05
2.083e-05
2.191e-05
2.302e-05
2.416e-05
2.532e-05
2.65e-05
2.768e-05
2.885e-05
3e-05
3.112e-05
3.218e-05
5.205e-06
9.474e-06
1.041e-05
1.068e-05
1.086e-05
1.107e-05
1.131e-05
1.16e-05
1.194e-05
1.232e-05
1.275e-05
1.323e-05
1.375e-05
1.433e-05
1.496e-05
1.564e-05
1.637e-05
1.715e-05
1.798e-05
1.886e-05
1.979e-05
2.075e-05
2.176e-05
2.28e-05
2.387e-05
2.496e-05
2.605e-05
2.715e-05
2.824e-05
2.93e-05
3.033e-05
3.131e-05
5.204e-06
9.472e-06
1.041e-05
1.068e-05
1.086e-05
1.107e-05
1.131e-05
1.16e-05
1.193e-05
1.231e-05
1.274e-05
1.322e-05
1.375e-05
1.432e-05
1.495e-05
1.563e-05
1.636e-05
1.713e-05
1.796e-05
1.884e-05
1.976e-05
2.073e-05
2.173e-05
2.277e-05
2.383e-05
2.491e-05
2.6e-05
2.71e-05
2.818e-05
2.924e-05
3.026e-05
3.123e-05
5.202e-06
9.469e-06
1.041e-05
1.068e-05
1.086e-05
1.106e-05
1.131e-05
1.159e-05
1.193e-05
1.231e-05
1.273e-05
1.321e-05
1.373e-05
1.431e-05
1.493e-05
1.56e-05
1.633e-05
1.71e-05
1.793e-05
1.88e-05
1.971e-05
2.067e-05
2.167e-05
2.27e-05
2.375e-05
2.482e-05
2.59e-05
2.699e-05
2.806e-05
2.91e-05
3.012e-05
3.108e-05
5.2e-06
9.465e-06
1.04e-05
1.067e-05
1.085e-05
1.105e-05
1.13e-05
1.158e-05
1.192e-05
1.229e-05
1.272e-05
1.319e-05
1.371e-05
1.428e-05
1.49e-05
1.557e-05
1.629e-05
1.706e-05
1.787e-05
1.874e-05
1.964e-05
2.059e-05
2.158e-05
2.259e-05
2.363e-05
2.469e-05
2.576e-05
2.683e-05
2.788e-05
2.891e-05
2.991e-05
3.085e-05
5.393e-06
9.814e-06
1.078e-05
1.105e-05
1.123e-05
1.142e-05
1.166e-05
1.193e-05
1.225e-05
1.262e-05
1.303e-05
1.348e-05
1.398e-05
1.453e-05
1.512e-05
1.576e-05
1.644e-05
1.717e-05
1.795e-05
1.877e-05
1.963e-05
2.052e-05
2.145e-05
2.24e-05
2.338e-05
2.437e-05
2.537e-05
2.636e-05
2.734e-05
2.83e-05
2.922e-05
3.009e-05
5.393e-06
9.813e-06
1.078e-05
1.105e-05
1.123e-05
1.142e-05
1.166e-05
1.193e-05
1.225e-05
1.261e-05
1.302e-05
1.347e-05
1.397e-05
1.452e-05
1.511e-05
1.575e-05
1.643e-05
1.716e-05
1.793e-05
1.875e-05
1.96e-05
2.05e-05
2.142e-05
2.237e-05
2.334e-05
2.433e-05
2.532e-05
2.631e-05
2.729e-05
2.824e-05
2.916e-05
3.003e-05
5.391e-06
9.81e-06
1.078e-05
1.104e-05
1.122e-05
1.142e-05
1.165e-05
1.193e-05
1.224e-05
1.261e-05
1.301e-05
1.346e-05
1.396e-05
1.45e-05
1.509e-05
1.573e-05
1.641e-05
1.713e-05
1.79e-05
1.871e-05
1.956e-05
2.045e-05
2.137e-05
2.231e-05
2.328e-05
2.426e-05
2.524e-05
2.622e-05
2.719e-05
2.813e-05
2.904e-05
2.99e-05
5.389e-06
9.806e-06
1.077e-05
1.104e-05
1.122e-05
1.141e-05
1.164e-05
1.192e-05
1.223e-05
1.259e-05
1.3e-05
1.345e-05
1.394e-05
1.448e-05
1.507e-05
1.57e-05
1.637e-05
1.709e-05
1.786e-05
1.866e-05
1.95e-05
2.038e-05
2.129e-05
2.222e-05
2.318e-05
2.415e-05
2.512e-05
2.609e-05
2.704e-05
2.798e-05
2.887e-05
2.972e-05
5.569e-06
1.013e-05
1.112e-05
1.139e-05
1.157e-05
1.175e-05
1.198e-05
1.224e-05
1.255e-05
1.29e-05
1.328e-05
1.372e-05
1.419e-05
1.471e-05
1.527e-05
1.587e-05
1.651e-05
1.72e-05
1.793e-05
1.869e-05
1.949e-05
2.032e-05
2.117e-05
2.205e-05
2.295e-05
2.386e-05
2.477e-05
2.568e-05
2.657e-05
2.743e-05
2.827e-05
2.906e-05
5.568e-06
1.013e-05
1.112e-05
1.139e-05
1.156e-05
1.175e-05
1.198e-05
1.224e-05
1.255e-05
1.289e-05
1.328e-05
1.371e-05
1.418e-05
1.47e-05
1.526e-05
1.586e-05
1.65e-05
1.719e-05
1.791e-05
1.867e-05
1.947e-05
2.03e-05
2.115e-05
2.203e-05
2.292e-05
2.383e-05
2.474e-05
2.564e-05
2.653e-05
2.739e-05
2.822e-05
2.9e-05
5.567e-06
1.013e-05
1.112e-05
1.139e-05
1.156e-05
1.175e-05
1.197e-05
1.223e-05
1.254e-05
1.288e-05
1.327e-05
1.37e-05
1.417e-05
1.469e-05
1.524e-05
1.584e-05
1.648e-05
1.716e-05
1.788e-05
1.864e-05
1.943e-05
2.026e-05
2.111e-05
2.198e-05
2.287e-05
2.377e-05
2.467e-05
2.556e-05
2.644e-05
2.73e-05
2.812e-05
2.89e-05
5.565e-06
1.012e-05
1.111e-05
1.138e-05
1.156e-05
1.174e-05
1.196e-05
1.223e-05
1.253e-05
1.287e-05
1.326e-05
1.369e-05
1.416e-05
1.467e-05
1.522e-05
1.582e-05
1.645e-05
1.713e-05
1.785e-05
1.86e-05
1.938e-05
2.02e-05
2.104e-05
2.191e-05
2.279e-05
2.367e-05
2.457e-05
2.545e-05
2.632e-05
2.717e-05
2.798e-05
2.875e-05
5.731e-06
1.042e-05
1.144e-05
1.171e-05
1.188e-05
1.206e-05
1.227e-05
1.253e-05
1.282e-05
1.315e-05
1.352e-05
1.393e-05
1.438e-05
1.487e-05
1.54e-05
1.597e-05
1.658e-05
1.723e-05
1.791e-05
1.862e-05
1.937e-05
2.014e-05
2.094e-05
2.176e-05
2.258e-05
2.342e-05
2.426e-05
2.509e-05
2.59e-05
2.669e-05
2.745e-05
2.817e-05
5.73e-06
1.042e-05
1.144e-05
1.171e-05
1.188e-05
1.206e-05
1.227e-05
1.252e-05
1.282e-05
1.315e-05
1.352e-05
1.393e-05
1.438e-05
1.487e-05
1.54e-05
1.597e-05
1.657e-05
1.722e-05
1.79e-05
1.861e-05
1.935e-05
2.012e-05
2.092e-05
2.173e-05
2.256e-05
2.339e-05
2.423e-05
2.506e-05
2.587e-05
2.666e-05
2.741e-05
2.813e-05
5.729e-06
1.042e-05
1.144e-05
1.171e-05
1.187e-05
1.205e-05
1.227e-05
1.252e-05
1.281e-05
1.314e-05
1.351e-05
1.392e-05
1.437e-05
1.486e-05
1.538e-05
1.595e-05
1.656e-05
1.72e-05
1.787e-05
1.858e-05
1.932e-05
2.009e-05
2.088e-05
2.169e-05
2.251e-05
2.334e-05
2.417e-05
2.499e-05
2.58e-05
2.658e-05
2.733e-05
2.804e-05
5.727e-06
1.042e-05
1.143e-05
1.17e-05
1.187e-05
1.205e-05
1.226e-05
1.251e-05
1.28e-05
1.313e-05
1.35e-05
1.391e-05
1.435e-05
1.484e-05
1.536e-05
1.593e-05
1.653e-05
1.717e-05
1.784e-05
1.854e-05
1.928e-05
2.004e-05
2.083e-05
2.163e-05
2.244e-05
2.327e-05
2.409e-05
2.49e-05
2.57e-05
2.647e-05
2.722e-05
2.792e-05
5.88e-06
1.069e-05
1.173e-05
1.2e-05
1.216e-05
1.234e-05
1.254e-05
1.279e-05
1.307e-05
1.338e-05
1.374e-05
1.413e-05
1.456e-05
1.503e-05
1.553e-05
1.607e-05
1.665e-05
1.726e-05
1.79e-05
1.857e-05
1.927e-05
1.999e-05
2.074e-05
2.15e-05
2.227e-05
2.304e-05
2.382e-05
2.458e-05
2.533e-05
2.606e-05
2.676e-05
2.741e-05
5.879e-06
1.069e-05
1.173e-05
1.2e-05
1.216e-05
1.234e-05
1.254e-05
1.278e-05
1.306e-05
1.338e-05
1.373e-05
1.413e-05
1.455e-05
1.502e-05
1.552e-05
1.606e-05
1.664e-05
1.725e-05
1.789e-05
1.856e-05
1.926e-05
1.998e-05
2.072e-05
2.148e-05
2.225e-05
2.302e-05
2.379e-05
2.456e-05
2.53e-05
2.603e-05
2.672e-05
2.738e-05
5.878e-06
1.069e-05
1.173e-05
1.2e-05
1.216e-05
1.233e-05
1.254e-05
1.278e-05
1.306e-05
1.337e-05
1.373e-05
1.412e-05
1.455e-05
1.501e-05
1.551e-05
1.605e-05
1.662e-05
1.723e-05
1.787e-05
1.853e-05
1.923e-05
1.995e-05
2.069e-05
2.144e-05
2.221e-05
2.298e-05
2.374e-05
2.45e-05
2.525e-05
2.597e-05
2.666e-05
2.731e-05
5.876e-06
1.069e-05
1.172e-05
1.199e-05
1.215e-05
1.233e-05
1.253e-05
1.277e-05
1.305e-05
1.337e-05
1.372e-05
1.411e-05
1.453e-05
1.5e-05
1.549e-05
1.603e-05
1.66e-05
1.72e-05
1.784e-05
1.85e-05
1.919e-05
1.991e-05
2.064e-05
2.139e-05
2.215e-05
2.291e-05
2.367e-05
2.443e-05
2.516e-05
2.588e-05
2.656e-05
2.72e-05
6.015e-06
1.094e-05
1.199e-05
1.226e-05
1.242e-05
1.259e-05
1.279e-05
1.302e-05
1.329e-05
1.359e-05
1.393e-05
1.431e-05
1.472e-05
1.516e-05
1.564e-05
1.616e-05
1.67e-05
1.728e-05
1.789e-05
1.852e-05
1.918e-05
1.986e-05
2.056e-05
2.127e-05
2.199e-05
2.272e-05
2.344e-05
2.415e-05
2.485e-05
2.552e-05
2.616e-05
2.677e-05
6.014e-06
1.093e-05
1.199e-05
1.226e-05
1.242e-05
1.259e-05
1.279e-05
1.302e-05
1.329e-05
1.359e-05
1.393e-05
1.43e-05
1.471e-05
1.516e-05
1.564e-05
1.615e-05
1.67e-05
1.727e-05
1.788e-05
1.851e-05
1.917e-05
1.985e-05
2.055e-05
2.126e-05
2.198e-05
2.27e-05
2.342e-05
2.413e-05
2.482e-05
2.549e-05
2.613e-05
2.674e-05
6.013e-06
1.093e-05
1.199e-05
1.226e-05
1.242e-05
1.259e-05
1.278e-05
1.302e-05
1.328e-05
1.359e-05
1.392e-05
1.43e-05
1.471e-05
1.515e-05
1.563e-05
1.614e-05
1.668e-05
1.726e-05
1.786e-05
1.849e-05
1.915e-05
1.983e-05
2.052e-05
2.123e-05
2.194e-05
2.266e-05
2.338e-05
2.408e-05
2.477e-05
2.544e-05
2.608e-05
2.668e-05
6.011e-06
1.093e-05
1.199e-05
1.226e-05
1.241e-05
1.258e-05
1.278e-05
1.301e-05
1.328e-05
1.358e-05
1.392e-05
1.429e-05
1.469e-05
1.514e-05
1.561e-05
1.612e-05
1.666e-05
1.724e-05
1.784e-05
1.847e-05
1.912e-05
1.979e-05
2.048e-05
2.118e-05
2.189e-05
2.261e-05
2.332e-05
2.402e-05
2.47e-05
2.536e-05
2.6e-05
2.659e-05
6.136e-06
1.115e-05
1.223e-05
1.25e-05
1.266e-05
1.282e-05
1.301e-05
1.323e-05
1.349e-05
1.378e-05
1.411e-05
1.447e-05
1.486e-05
1.529e-05
1.575e-05
1.624e-05
1.676e-05
1.731e-05
1.789e-05
1.849e-05
1.911e-05
1.975e-05
2.041e-05
2.108e-05
2.176e-05
2.244e-05
2.312e-05
2.378e-05
2.443e-05
2.506e-05
2.566e-05
2.622e-05
6.136e-06
1.115e-05
1.223e-05
1.25e-05
1.265e-05
1.282e-05
1.301e-05
1.323e-05
1.349e-05
1.378e-05
1.411e-05
1.447e-05
1.486e-05
1.528e-05
1.574e-05
1.623e-05
1.675e-05
1.73e-05
1.788e-05
1.848e-05
1.91e-05
1.974e-05
2.04e-05
2.107e-05
2.175e-05
2.242e-05
2.31e-05
2.376e-05
2.441e-05
2.504e-05
2.563e-05
2.619e-05
6.134e-06
1.115e-05
1.223e-05
1.25e-05
1.265e-05
1.281e-05
1.3e-05
1.323e-05
1.348e-05
1.378e-05
1.41e-05
1.446e-05
1.485e-05
1.528e-05
1.573e-05
1.622e-05
1.674e-05
1.729e-05
1.786e-05
1.846e-05
1.908e-05
1.972e-05
2.038e-05
2.104e-05
2.172e-05
2.239e-05
2.306e-05
2.372e-05
2.437e-05
2.499e-05
2.559e-05
2.614e-05
6.133e-06
1.115e-05
1.222e-05
1.249e-05
1.265e-05
1.281e-05
1.3e-05
1.322e-05
1.348e-05
1.377e-05
1.409e-05
1.445e-05
1.484e-05
1.526e-05
1.572e-05
1.621e-05
1.672e-05
1.727e-05
1.784e-05
1.844e-05
1.905e-05
1.969e-05
2.034e-05
2.101e-05
2.167e-05
2.235e-05
2.301e-05
2.367e-05
2.431e-05
2.493e-05
2.552e-05
2.607e-05
6.244e-06
1.135e-05
1.244e-05
1.271e-05
1.286e-05
1.302e-05
1.32e-05
1.342e-05
1.367e-05
1.395e-05
1.426e-05
1.461e-05
1.499e-05
1.54e-05
1.584e-05
1.631e-05
1.681e-05
1.733e-05
1.788e-05
1.846e-05
1.905e-05
1.966e-05
2.029e-05
2.092e-05
2.156e-05
2.221e-05
2.284e-05
2.347e-05
2.408e-05
2.467e-05
2.523e-05
2.576e-05
6.243e-06
1.135e-05
1.244e-05
1.271e-05
1.286e-05
1.302e-05
1.32e-05
1.342e-05
1.367e-05
1.395e-05
1.426e-05
1.461e-05
1.498e-05
1.539e-05
1.583e-05
1.63e-05
1.68e-05
1.733e-05
1.788e-05
1.845e-05
1.904e-05
1.965e-05
2.028e-05
2.091e-05
2.155e-05
2.219e-05
2.283e-05
2.345e-05
2.406e-05
2.465e-05
2.521e-05
2.574e-05
6.242e-06
1.134e-05
1.243e-05
1.271e-05
1.286e-05
1.301e-05
1.32e-05
1.341e-05
1.366e-05
1.394e-05
1.426e-05
1.46e-05
1.498e-05
1.539e-05
1.583e-05
1.629e-05
1.679e-05
1.731e-05
1.786e-05
1.843e-05
1.903e-05
1.963e-05
2.026e-05
2.089e-05
2.153e-05
2.216e-05
2.28e-05
2.342e-05
2.403e-05
2.461e-05
2.517e-05
2.57e-05
6.24e-06
1.134e-05
1.243e-05
1.27e-05
1.285e-05
1.301e-05
1.319e-05
1.341e-05
1.366e-05
1.394e-05
1.425e-05
1.459e-05
1.497e-05
1.538e-05
1.581e-05
1.628e-05
1.677e-05
1.73e-05
1.784e-05
1.841e-05
1.9e-05
1.961e-05
2.023e-05
2.085e-05
2.149e-05
2.212e-05
2.275e-05
2.337e-05
2.398e-05
2.456e-05
2.511e-05
2.563e-05
6.337e-06
1.152e-05
1.262e-05
1.289e-05
1.304e-05
1.319e-05
1.337e-05
1.358e-05
1.382e-05
1.409e-05
1.44e-05
1.473e-05
1.51e-05
1.549e-05
1.592e-05
1.637e-05
1.685e-05
1.735e-05
1.788e-05
1.843e-05
1.9e-05
1.959e-05
2.018e-05
2.079e-05
2.14e-05
2.201e-05
2.261e-05
2.321e-05
2.379e-05
2.435e-05
2.488e-05
2.538e-05
6.336e-06
1.152e-05
1.262e-05
1.289e-05
1.304e-05
1.319e-05
1.337e-05
1.358e-05
1.382e-05
1.409e-05
1.44e-05
1.473e-05
1.509e-05
1.549e-05
1.591e-05
1.637e-05
1.684e-05
1.735e-05
1.788e-05
1.843e-05
1.899e-05
1.958e-05
2.017e-05
2.078e-05
2.139e-05
2.2e-05
2.26e-05
2.319e-05
2.377e-05
2.433e-05
2.486e-05
2.536e-05
6.335e-06
1.151e-05
1.262e-05
1.289e-05
1.304e-05
1.319e-05
1.337e-05
1.358e-05
1.382e-05
1.409e-05
1.439e-05
1.472e-05
1.509e-05
1.548e-05
1.591e-05
1.636e-05
1.683e-05
1.734e-05
1.786e-05
1.841e-05
1.898e-05
1.956e-05
2.016e-05
2.076e-05
2.137e-05
2.197e-05
2.257e-05
2.317e-05
2.374e-05
2.43e-05
2.483e-05
2.532e-05
6.334e-06
1.151e-05
1.261e-05
1.288e-05
1.303e-05
1.318e-05
1.336e-05
1.357e-05
1.381e-05
1.408e-05
1.438e-05
1.472e-05
1.508e-05
1.547e-05
1.589e-05
1.634e-05
1.682e-05
1.732e-05
1.785e-05
1.839e-05
1.896e-05
1.954e-05
2.013e-05
2.073e-05
2.133e-05
2.194e-05
2.254e-05
2.313e-05
2.37e-05
2.425e-05
2.477e-05
2.527e-05
6.417e-06
1.166e-05
1.277e-05
1.305e-05
1.319e-05
1.334e-05
1.351e-05
1.372e-05
1.395e-05
1.422e-05
1.451e-05
1.484e-05
1.519e-05
1.557e-05
1.598e-05
1.642e-05
1.689e-05
1.737e-05
1.788e-05
1.841e-05
1.896e-05
1.952e-05
2.01e-05
2.068e-05
2.126e-05
2.185e-05
2.243e-05
2.299e-05
2.355e-05
2.408e-05
2.459e-05
2.506e-05
6.416e-06
1.166e-05
1.277e-05
1.304e-05
1.319e-05
1.334e-05
1.351e-05
1.372e-05
1.395e-05
1.421e-05
1.451e-05
1.483e-05
1.519e-05
1.557e-05
1.598e-05
1.642e-05
1.688e-05
1.737e-05
1.788e-05
1.841e-05
1.895e-05
1.952e-05
2.009e-05
2.067e-05
2.125e-05
2.184e-05
2.241e-05
2.298e-05
2.353e-05
2.407e-05
2.457e-05
2.504e-05
6.415e-06
1.166e-05
1.277e-05
1.304e-05
1.319e-05
1.334e-05
1.351e-05
1.371e-05
1.395e-05
1.421e-05
1.45e-05
1.483e-05
1.518e-05
1.556e-05
1.597e-05
1.641e-05
1.687e-05
1.736e-05
1.787e-05
1.839e-05
1.894e-05
1.95e-05
2.007e-05
2.065e-05
2.123e-05
2.182e-05
2.239e-05
2.296e-05
2.351e-05
2.404e-05
2.454e-05
2.501e-05
6.414e-06
1.165e-05
1.277e-05
1.304e-05
1.318e-05
1.333e-05
1.351e-05
1.371e-05
1.394e-05
1.421e-05
1.45e-05
1.482e-05
1.517e-05
1.556e-05
1.596e-05
1.64e-05
1.686e-05
1.734e-05
1.785e-05
1.838e-05
1.892e-05
1.948e-05
2.005e-05
2.062e-05
2.12e-05
2.178e-05
2.236e-05
2.292e-05
2.347e-05
2.4e-05
2.45e-05
2.497e-05
6.482e-06
1.178e-05
1.29e-05
1.317e-05
1.332e-05
1.346e-05
1.363e-05
1.383e-05
1.406e-05
1.432e-05
1.46e-05
1.492e-05
1.527e-05
1.564e-05
1.604e-05
1.646e-05
1.692e-05
1.739e-05
1.788e-05
1.84e-05
1.893e-05
1.947e-05
2.003e-05
2.059e-05
2.115e-05
2.172e-05
2.228e-05
2.282e-05
2.336e-05
2.387e-05
2.435e-05
2.481e-05
6.482e-06
1.178e-05
1.29e-05
1.317e-05
1.331e-05
1.346e-05
1.363e-05
1.383e-05
1.406e-05
1.432e-05
1.46e-05
1.492e-05
1.526e-05
1.564e-05
1.604e-05
1.646e-05
1.691e-05
1.738e-05
1.788e-05
1.839e-05
1.892e-05
1.947e-05
2.002e-05
2.058e-05
2.114e-05
2.171e-05
2.227e-05
2.281e-05
2.334e-05
2.386e-05
2.434e-05
2.48e-05
6.481e-06
1.178e-05
1.29e-05
1.317e-05
1.331e-05
1.346e-05
1.363e-05
1.383e-05
1.405e-05
1.431e-05
1.46e-05
1.491e-05
1.526e-05
1.563e-05
1.603e-05
1.645e-05
1.69e-05
1.738e-05
1.787e-05
1.838e-05
1.891e-05
1.945e-05
2e-05
2.056e-05
2.113e-05
2.169e-05
2.224e-05
2.279e-05
2.332e-05
2.383e-05
2.431e-05
2.477e-05
6.48e-06
1.177e-05
1.29e-05
1.317e-05
1.331e-05
1.345e-05
1.362e-05
1.382e-05
1.405e-05
1.431e-05
1.459e-05
1.491e-05
1.525e-05
1.562e-05
1.602e-05
1.644e-05
1.689e-05
1.736e-05
1.785e-05
1.837e-05
1.889e-05
1.943e-05
1.998e-05
2.054e-05
2.11e-05
2.166e-05
2.221e-05
2.276e-05
2.329e-05
2.379e-05
2.428e-05
2.473e-05
6.534e-06
1.187e-05
1.3e-05
1.327e-05
1.341e-05
1.356e-05
1.372e-05
1.392e-05
1.414e-05
1.44e-05
1.468e-05
1.499e-05
1.533e-05
1.569e-05
1.608e-05
1.65e-05
1.694e-05
1.74e-05
1.788e-05
1.839e-05
1.89e-05
1.943e-05
1.997e-05
2.052e-05
2.107e-05
2.162e-05
2.216e-05
2.269e-05
2.321e-05
2.371e-05
2.418e-05
2.462e-05
6.534e-06
1.187e-05
1.3e-05
1.327e-05
1.341e-05
1.356e-05
1.372e-05
1.392e-05
1.414e-05
1.439e-05
1.468e-05
1.499e-05
1.532e-05
1.569e-05
1.608e-05
1.65e-05
1.694e-05
1.74e-05
1.788e-05
1.838e-05
1.89e-05
1.943e-05
1.997e-05
2.051e-05
2.106e-05
2.161e-05
2.215e-05
2.268e-05
2.32e-05
2.369e-05
2.416e-05
2.461e-05
6.533e-06
1.187e-05
1.3e-05
1.327e-05
1.341e-05
1.355e-05
1.372e-05
1.391e-05
1.414e-05
1.439e-05
1.467e-05
1.498e-05
1.532e-05
1.568e-05
1.607e-05
1.649e-05
1.693e-05
1.739e-05
1.787e-05
1.837e-05
1.889e-05
1.941e-05
1.995e-05
2.05e-05
2.105e-05
2.159e-05
2.213e-05
2.266e-05
2.318e-05
2.367e-05
2.414e-05
2.458e-05
6.532e-06
1.187e-05
1.3e-05
1.327e-05
1.341e-05
1.355e-05
1.372e-05
1.391e-05
1.413e-05
1.439e-05
1.467e-05
1.498e-05
1.531e-05
1.568e-05
1.607e-05
1.648e-05
1.692e-05
1.738e-05
1.786e-05
1.836e-05
1.887e-05
1.94e-05
1.993e-05
2.048e-05
2.102e-05
2.157e-05
2.21e-05
2.263e-05
2.315e-05
2.364e-05
2.41e-05
2.454e-05
6.572e-06
1.194e-05
1.308e-05
1.335e-05
1.349e-05
1.363e-05
1.379e-05
1.398e-05
1.42e-05
1.445e-05
1.473e-05
1.504e-05
1.537e-05
1.573e-05
1.611e-05
1.652e-05
1.696e-05
1.741e-05
1.789e-05
1.838e-05
1.889e-05
1.941e-05
1.994e-05
2.047e-05
2.101e-05
2.155e-05
2.208e-05
2.26e-05
2.31e-05
2.359e-05
2.405e-05
2.448e-05
6.572e-06
1.194e-05
1.307e-05
1.335e-05
1.348e-05
1.363e-05
1.379e-05
1.398e-05
1.42e-05
1.445e-05
1.473e-05
1.504e-05
1.537e-05
1.573e-05
1.611e-05
1.652e-05
1.695e-05
1.741e-05
1.788e-05
1.837e-05
1.888e-05
1.94e-05
1.993e-05
2.046e-05
2.1e-05
2.154e-05
2.207e-05
2.259e-05
2.309e-05
2.358e-05
2.404e-05
2.447e-05
6.571e-06
1.194e-05
1.307e-05
1.334e-05
1.348e-05
1.362e-05
1.379e-05
1.398e-05
1.42e-05
1.445e-05
1.473e-05
1.503e-05
1.536e-05
1.572e-05
1.611e-05
1.651e-05
1.695e-05
1.74e-05
1.787e-05
1.836e-05
1.887e-05
1.939e-05
1.992e-05
2.045e-05
2.099e-05
2.152e-05
2.205e-05
2.257e-05
2.307e-05
2.356e-05
2.402e-05
2.445e-05
6.57e-06
1.193e-05
1.307e-05
1.334e-05
1.348e-05
1.362e-05
1.378e-05
1.398e-05
1.42e-05
1.444e-05
1.472e-05
1.503e-05
1.536e-05
1.571e-05
1.61e-05
1.651e-05
1.694e-05
1.739e-05
1.786e-05
1.835e-05
1.885e-05
1.937e-05
1.99e-05
2.043e-05
2.097e-05
2.15e-05
2.203e-05
2.254e-05
2.304e-05
2.353e-05
2.398e-05
2.441e-05
6.597e-06
1.198e-05
1.312e-05
1.339e-05
1.353e-05
1.367e-05
1.383e-05
1.402e-05
1.424e-05
1.449e-05
1.477e-05
1.507e-05
1.54e-05
1.575e-05
1.613e-05
1.654e-05
1.697e-05
1.742e-05
1.789e-05
1.837e-05
1.887e-05
1.939e-05
1.991e-05
2.044e-05
2.097e-05
2.15e-05
2.203e-05
2.254e-05
2.304e-05
2.352e-05
2.397e-05
2.44e-05
6.596e-06
1.198e-05
1.312e-05
1.339e-05
1.353e-05
1.367e-05
1.383e-05
1.402e-05
1.424e-05
1.449e-05
1.476e-05
1.507e-05
1.539e-05
1.575e-05
1.613e-05
1.654e-05
1.696e-05
1.741e-05
1.788e-05
1.837e-05
1.887e-05
1.938e-05
1.991e-05
2.043e-05
2.097e-05
2.15e-05
2.202e-05
2.253e-05
2.303e-05
2.351e-05
2.396e-05
2.439e-05
6.595e-06
1.198e-05
1.312e-05
1.339e-05
1.353e-05
1.367e-05
1.383e-05
1.402e-05
1.424e-05
1.449e-05
1.476e-05
1.506e-05
1.539e-05
1.575e-05
1.613e-05
1.653e-05
1.696e-05
1.74e-05
1.787e-05
1.836e-05
1.886e-05
1.937e-05
1.989e-05
2.042e-05
2.095e-05
2.148e-05
2.2e-05
2.251e-05
2.301e-05
2.349e-05
2.394e-05
2.437e-05
6.594e-06
1.198e-05
1.312e-05
1.339e-05
1.353e-05
1.366e-05
1.383e-05
1.402e-05
1.423e-05
1.448e-05
1.476e-05
1.506e-05
1.538e-05
1.574e-05
1.612e-05
1.652e-05
1.695e-05
1.739e-05
1.786e-05
1.835e-05
1.884e-05
1.936e-05
1.988e-05
2.04e-05
2.093e-05
2.146e-05
2.198e-05
2.249e-05
2.298e-05
2.346e-05
2.391e-05
2.433e-05
6.607e-06
1.2e-05
1.314e-05
1.341e-05
1.355e-05
1.369e-05
1.385e-05
1.404e-05
1.426e-05
1.45e-05
1.478e-05
1.508e-05
1.541e-05
1.576e-05
1.614e-05
1.654e-05
1.697e-05
1.742e-05
1.788e-05
1.837e-05
1.887e-05
1.938e-05
1.99e-05
2.043e-05
2.096e-05
2.149e-05
2.201e-05
2.252e-05
2.302e-05
2.349e-05
2.395e-05
2.437e-05
6.607e-06
1.2e-05
1.314e-05
1.341e-05
1.355e-05
1.369e-05
1.385e-05
1.404e-05
1.426e-05
1.45e-05
1.478e-05
1.508e-05
1.541e-05
1.576e-05
1.614e-05
1.654e-05
1.697e-05
1.741e-05
1.788e-05
1.836e-05
1.886e-05
1.938e-05
1.99e-05
2.042e-05
2.095e-05
2.148e-05
2.2e-05
2.251e-05
2.301e-05
2.348e-05
2.393e-05
2.436e-05
6.606e-06
1.2e-05
1.314e-05
1.341e-05
1.355e-05
1.369e-05
1.385e-05
1.404e-05
1.425e-05
1.45e-05
1.477e-05
1.507e-05
1.54e-05
1.575e-05
1.613e-05
1.654e-05
1.696e-05
1.741e-05
1.787e-05
1.836e-05
1.885e-05
1.936e-05
1.988e-05
2.041e-05
2.094e-05
2.146e-05
2.198e-05
2.249e-05
2.299e-05
2.346e-05
2.391e-05
2.434e-05
6.605e-06
1.2e-05
1.314e-05
1.341e-05
1.354e-05
1.368e-05
1.384e-05
1.403e-05
1.425e-05
1.45e-05
1.477e-05
1.507e-05
1.54e-05
1.575e-05
1.613e-05
1.653e-05
1.695e-05
1.74e-05
1.786e-05
1.834e-05
1.884e-05
1.935e-05
1.987e-05
2.039e-05
2.092e-05
2.144e-05
2.196e-05
2.247e-05
2.296e-05
2.343e-05
2.388e-05
2.43e-05
3.067e-05
2.876e-05
2.974e-05
2.695e-05
2.793e-05
2.885e-05
2.478e-05
2.573e-05
2.664e-05
2.749e-05
2.068e-05
2.152e-05
2.233e-05
2.31e-05
2.383e-05
1.12e-05
1.169e-05
1.216e-05
1.261e-05
1.304e-05
1.345e-05
4.074e-06
7.43e-06
8.196e-06
8.455e-06
8.666e-06
8.911e-06
9.209e-06
9.563e-06
9.976e-06
1.045e-05
1.099e-05
1.159e-05
1.227e-05
1.302e-05
1.384e-05
1.475e-05
1.574e-05
1.681e-05
1.798e-05
1.923e-05
2.057e-05
2.201e-05
2.353e-05
2.513e-05
2.681e-05
2.856e-05
3.036e-05
3.219e-05
3.404e-05
3.589e-05
3.77e-05
3.945e-05
4.07e-06
7.422e-06
8.186e-06
8.444e-06
8.653e-06
8.897e-06
9.191e-06
9.542e-06
9.95e-06
1.042e-05
1.095e-05
1.155e-05
1.221e-05
1.295e-05
1.376e-05
1.465e-05
1.562e-05
1.667e-05
1.781e-05
1.903e-05
2.034e-05
2.173e-05
2.321e-05
2.476e-05
2.638e-05
2.806e-05
2.98e-05
3.156e-05
3.333e-05
3.51e-05
3.683e-05
3.85e-05
4.065e-06
7.413e-06
8.176e-06
8.432e-06
8.639e-06
8.88e-06
9.171e-06
9.517e-06
9.921e-06
1.038e-05
1.091e-05
1.15e-05
1.215e-05
1.287e-05
1.367e-05
1.454e-05
1.549e-05
1.651e-05
1.762e-05
1.881e-05
2.007e-05
2.142e-05
2.285e-05
2.434e-05
2.59e-05
2.751e-05
2.917e-05
3.085e-05
3.254e-05
3.422e-05
3.586e-05
3.744e-05
4.06e-06
7.403e-06
8.164e-06
8.419e-06
8.623e-06
8.861e-06
9.149e-06
9.491e-06
9.889e-06
1.034e-05
1.086e-05
1.144e-05
1.208e-05
1.279e-05
1.357e-05
1.442e-05
1.534e-05
1.634e-05
1.741e-05
1.856e-05
1.979e-05
2.109e-05
2.246e-05
2.389e-05
2.538e-05
2.692e-05
2.85e-05
3.01e-05
3.17e-05
3.328e-05
3.483e-05
3.632e-05
4.054e-06
7.393e-06
8.151e-06
8.405e-06
8.607e-06
8.842e-06
9.126e-06
9.463e-06
9.855e-06
1.03e-05
1.081e-05
1.138e-05
1.201e-05
1.27e-05
1.346e-05
1.429e-05
1.519e-05
1.616e-05
1.72e-05
1.831e-05
1.949e-05
2.074e-05
2.205e-05
2.343e-05
2.485e-05
2.631e-05
2.78e-05
2.931e-05
3.082e-05
3.231e-05
3.377e-05
3.516e-05
4.048e-06
7.382e-06
8.139e-06
8.39e-06
8.59e-06
8.822e-06
9.103e-06
9.435e-06
9.821e-06
1.026e-05
1.076e-05
1.132e-05
1.193e-05
1.261e-05
1.335e-05
1.416e-05
1.504e-05
1.598e-05
1.698e-05
1.805e-05
1.919e-05
2.039e-05
2.165e-05
2.295e-05
2.431e-05
2.569e-05
2.711e-05
2.853e-05
2.995e-05
3.134e-05
3.27e-05
3.4e-05
4.043e-06
7.371e-06
8.126e-06
8.376e-06
8.573e-06
8.803e-06
9.079e-06
9.406e-06
9.786e-06
1.022e-05
1.071e-05
1.126e-05
1.186e-05
1.252e-05
1.325e-05
1.403e-05
1.488e-05
1.579e-05
1.677e-05
1.78e-05
1.89e-05
2.005e-05
2.125e-05
2.249e-05
2.378e-05
2.509e-05
2.643e-05
2.776e-05
2.909e-05
3.04e-05
3.167e-05
3.287e-05
4.037e-06
7.36e-06
8.113e-06
8.362e-06
8.557e-06
8.784e-06
9.056e-06
9.379e-06
9.753e-06
1.018e-05
1.066e-05
1.12e-05
1.179e-05
1.244e-05
1.315e-05
1.391e-05
1.474e-05
1.562e-05
1.656e-05
1.756e-05
1.861e-05
1.972e-05
2.087e-05
2.205e-05
2.328e-05
2.452e-05
2.578e-05
2.704e-05
2.829e-05
2.951e-05
3.069e-05
3.181e-05
4.032e-06
7.35e-06
8.101e-06
8.348e-06
8.542e-06
8.765e-06
9.035e-06
9.353e-06
9.722e-06
1.014e-05
1.062e-05
1.114e-05
1.172e-05
1.236e-05
1.305e-05
1.38e-05
1.46e-05
1.546e-05
1.637e-05
1.734e-05
1.835e-05
1.941e-05
2.051e-05
2.165e-05
2.281e-05
2.399e-05
2.518e-05
2.637e-05
2.754e-05
2.869e-05
2.979e-05
3.084e-05
4.026e-06
7.34e-06
8.089e-06
8.334e-06
8.526e-06
8.747e-06
9.013e-06
9.328e-06
9.692e-06
1.011e-05
1.057e-05
1.109e-05
1.166e-05
1.228e-05
1.296e-05
1.369e-05
1.448e-05
1.531e-05
1.62e-05
1.713e-05
1.811e-05
1.913e-05
2.019e-05
2.128e-05
2.239e-05
2.352e-05
2.465e-05
2.577e-05
2.688e-05
2.795e-05
2.899e-05
2.997e-05
4.019e-06
7.323e-06
8.069e-06
8.312e-06
8.502e-06
8.721e-06
8.984e-06
9.295e-06
9.655e-06
1.006e-05
1.052e-05
1.103e-05
1.159e-05
1.221e-05
1.287e-05
1.359e-05
1.435e-05
1.517e-05
1.603e-05
1.694e-05
1.789e-05
1.887e-05
1.989e-05
2.094e-05
2.201e-05
2.308e-05
2.416e-05
2.523e-05
2.628e-05
2.73e-05
2.827e-05
2.92e-05
3.999e-06
7.275e-06
8.011e-06
8.25e-06
8.437e-06
8.653e-06
8.912e-06
9.218e-06
9.572e-06
9.974e-06
1.043e-05
1.093e-05
1.148e-05
1.208e-05
1.273e-05
1.343e-05
1.417e-05
1.497e-05
1.581e-05
1.669e-05
1.761e-05
1.856e-05
1.955e-05
2.056e-05
2.158e-05
2.261e-05
2.364e-05
2.466e-05
2.566e-05
2.662e-05