/*--------------------------------*- C++ -*----------------------------------*\
  =========                 |
  \\      /  F ield         | OpenFOAM: The Open Source CFD Toolbox
   \\    /   O peration     | Website:  https://openfoam.org
    \\  /    A nd           | Version:  6
     \\/     M anipulation  |
\*---------------------------------------------------------------------------*/
FoamFile
{
    version     2.0;
    format      ascii;
    class       volScalarField;
    location    "20";
    object      T;
}
// * * * * * * * * * * * * * * * * * * * * * * * * * * * * * * * * * * * * * //

dimensions      [0 0 0 1 0 0 0];

internalField   nonuniform List<scalar> 
16128
(
5.986
5.98
5.972
5.96
5.946
5.928
5.907
5.883
5.856
5.826
5.793
5.757
5.718
5.677
5.632
5.585
5.536
5.484
5.43
5.374
5.316
5.256
5.195
5.133
5.071
5.008
4.945
4.884
4.823
4.764
4.708
4.654
5.985
5.979
5.971
5.959
5.945
5.927
5.906
5.882
5.855
5.825
5.793
5.757
5.718
5.677
5.632
5.586
5.536
5.485
5.431
5.375
5.317
5.258
5.197
5.136
5.073
5.011
4.949
4.887
4.827
4.768
4.712
4.659
5.982
5.977
5.969
5.958
5.943
5.925
5.905
5.881
5.854
5.824
5.792
5.756
5.718
5.677
5.633
5.586
5.537
5.486
5.433
5.377
5.32
5.261
5.201
5.14
5.078
5.017
4.955
4.894
4.834
4.776
4.721
4.668
5.979
5.974
5.966
5.954
5.94
5.923
5.902
5.879
5.852
5.823
5.791
5.755
5.717
5.677
5.633
5.587
5.539
5.488
5.436
5.381
5.324
5.266
5.207
5.147
5.086
5.025
4.964
4.904
4.845
4.788
4.734
4.682
5.902
5.897
5.889
5.877
5.862
5.843
5.822
5.797
5.769
5.739
5.705
5.668
5.628
5.586
5.541
5.493
5.443
5.39
5.336
5.279
5.221
5.162
5.101
5.04
4.978
4.916
4.854
4.794
4.734
4.677
4.622
4.571
5.902
5.896
5.888
5.876
5.861
5.842
5.821
5.797
5.769
5.738
5.704
5.668
5.628
5.586
5.541
5.494
5.444
5.391
5.337
5.281
5.223
5.164
5.103
5.042
4.98
4.919
4.857
4.797
4.738
4.681
4.627
4.575
5.9
5.894
5.886
5.874
5.859
5.841
5.82
5.795
5.768
5.737
5.704
5.668
5.628
5.586
5.542
5.495
5.445
5.393
5.339
5.284
5.226
5.167
5.107
5.047
4.986
4.925
4.864
4.804
4.746
4.689
4.635
4.585
5.897
5.892
5.883
5.872
5.857
5.839
5.818
5.794
5.767
5.736
5.703
5.667
5.629
5.587
5.543
5.496
5.447
5.396
5.343
5.288
5.231
5.173
5.114
5.054
4.994
4.933
4.873
4.815
4.757
4.701
4.648
4.598
5.821
5.815
5.806
5.794
5.779
5.76
5.738
5.712
5.684
5.652
5.618
5.58
5.54
5.496
5.45
5.402
5.351
5.298
5.243
5.186
5.128
5.068
5.008
4.947
4.885
4.824
4.763
4.704
4.646
4.59
4.537
4.487
5.82
5.815
5.806
5.794
5.778
5.759
5.737
5.712
5.684
5.652
5.618
5.58
5.54
5.497
5.451
5.403
5.352
5.299
5.244
5.188
5.13
5.07
5.01
4.949
4.888
4.827
4.767
4.707
4.65
4.594
4.541
4.491
5.818
5.813
5.804
5.792
5.777
5.758
5.736
5.711
5.683
5.652
5.618
5.58
5.54
5.498
5.452
5.404
5.354
5.302
5.247
5.191
5.133
5.074
5.015
4.954
4.894
4.833
4.773
4.715
4.657
4.602
4.55
4.501
5.816
5.811
5.802
5.79
5.775
5.756
5.735
5.71
5.682
5.651
5.617
5.58
5.541
5.499
5.454
5.406
5.357
5.305
5.251
5.196
5.139
5.08
5.021
4.962
4.902
4.842
4.783
4.725
4.669
4.615
4.563
4.514
5.74
5.735
5.726
5.713
5.697
5.678
5.655
5.629
5.6
5.568
5.532
5.494
5.452
5.408
5.361
5.312
5.261
5.207
5.151
5.094
5.035
4.976
4.915
4.854
4.793
4.733
4.673
4.614
4.557
4.502
4.451
4.402
5.74
5.734
5.725
5.713
5.697
5.677
5.655
5.629
5.6
5.568
5.532
5.494
5.453
5.409
5.362
5.313
5.262
5.208
5.153
5.096
5.037
4.978
4.918
4.857
4.796
4.736
4.676
4.618
4.561
4.507
4.455
4.407
5.738
5.733
5.724
5.711
5.696
5.677
5.654
5.628
5.599
5.567
5.532
5.494
5.453
5.41
5.363
5.315
5.264
5.211
5.156
5.099
5.041
4.982
4.923
4.862
4.802
4.742
4.683
4.625
4.569
4.515
4.464
4.416
5.736
5.731
5.722
5.71
5.694
5.675
5.653
5.627
5.599
5.567
5.532
5.495
5.454
5.411
5.366
5.317
5.267
5.215
5.16
5.104
5.047
4.989
4.93
4.87
4.811
4.752
4.693
4.636
4.581
4.528
4.477
4.43
5.662
5.656
5.647
5.634
5.617
5.598
5.574
5.547
5.517
5.484
5.448
5.408
5.366
5.321
5.273
5.223
5.171
5.117
5.061
5.003
4.944
4.884
4.823
4.763
4.702
4.642
4.582
4.524
4.469
4.415
4.364
4.316
5.661
5.655
5.646
5.633
5.617
5.597
5.574
5.547
5.517
5.484
5.448
5.409
5.367
5.322
5.274
5.224
5.172
5.118
5.062
5.005
4.946
4.886
4.826
4.765
4.705
4.645
4.586
4.528
4.473
4.419
4.369
4.321
5.66
5.654
5.645
5.632
5.616
5.596
5.573
5.547
5.517
5.484
5.448
5.41
5.368
5.323
5.276
5.226
5.175
5.121
5.065
5.008
4.95
4.891
4.831
4.771
4.711
4.652
4.593
4.536
4.481
4.428
4.378
4.331
5.658
5.653
5.643
5.631
5.615
5.595
5.572
5.546
5.517
5.485
5.449
5.41
5.369
5.325
5.278
5.23
5.178
5.125
5.07
5.014
4.956
4.898
4.839
4.779
4.72
4.662
4.604
4.547
4.493
4.441
4.391
4.345
5.584
5.579
5.569
5.556
5.539
5.519
5.495
5.467
5.436
5.402
5.365
5.325
5.281
5.235
5.187
5.136
5.083
5.027
4.971
4.912
4.853
4.793
4.732
4.671
4.611
4.551
4.492
4.435
4.38
4.327
4.277
4.23
5.584
5.578
5.569
5.555
5.539
5.518
5.494
5.467
5.436
5.402
5.365
5.325
5.282
5.236
5.188
5.137
5.084
5.029
4.972
4.914
4.855
4.795
4.735
4.674
4.614
4.554
4.496
4.439
4.384
4.331
4.282
4.235
5.583
5.577
5.568
5.555
5.538
5.518
5.494
5.467
5.436
5.403
5.366
5.326
5.283
5.238
5.19
5.139
5.087
5.032
4.976
4.918
4.86
4.8
4.74
4.68
4.62
4.561
4.503
4.447
4.392
4.34
4.291
4.245
5.581
5.576
5.566
5.554
5.537
5.517
5.494
5.467
5.437
5.403
5.367
5.327
5.285
5.24
5.193
5.143
5.091
5.037
4.981
4.924
4.866
4.808
4.748
4.689
4.63
4.572
4.514
4.459
4.405
4.353
4.305
4.259
5.509
5.503
5.493
5.479
5.462
5.441
5.416
5.388
5.356
5.321
5.283
5.242
5.198
5.151
5.101
5.049
4.995
4.939
4.881
4.823
4.763
4.702
4.641
4.58
4.52
4.46
4.402
4.345
4.291
4.238
4.189
4.144
5.508
5.503
5.493
5.479
5.462
5.441
5.416
5.388
5.357
5.322
5.284
5.242
5.198
5.151
5.102
5.05
4.996
4.941
4.883
4.825
4.765
4.705
4.644
4.583
4.523
4.464
4.406
4.349
4.295
4.243
4.194
4.149
5.508
5.502
5.492
5.479
5.461
5.441
5.416
5.388
5.357
5.322
5.284
5.244
5.2
5.153
5.104
5.053
4.999
4.944
4.887
4.829
4.77
4.71
4.65
4.59
4.53
4.471
4.413
4.357
4.303
4.252
4.204
4.158
5.506
5.501
5.491
5.478
5.461
5.44
5.416
5.388
5.357
5.323
5.286
5.245
5.202
5.156
5.108
5.057
5.004
4.949
4.893
4.836
4.777
4.718
4.658
4.599
4.54
4.482
4.425
4.369
4.316
4.265
4.218
4.173
5.435
5.429
5.419
5.405
5.387
5.365
5.34
5.311
5.278
5.242
5.203
5.16
5.115
5.067
5.016
4.963
4.908
4.851
4.793
4.733
4.673
4.612
4.551
4.49
4.429
4.37
4.311
4.255
4.201
4.15
4.101
4.056
5.434
5.428
5.418
5.404
5.387
5.365
5.34
5.311
5.278
5.242
5.203
5.161
5.116
5.068
5.017
4.965
4.91
4.853
4.795
4.736
4.675
4.615
4.554
4.493
4.433
4.373
4.315
4.259
4.205
4.154
4.106
4.061
5.434
5.428
5.418
5.404
5.386
5.365
5.34
5.311
5.279
5.243
5.204
5.162
5.118
5.07
5.02
4.968
4.913
4.857
4.799
4.74
4.681
4.62
4.56
4.499
4.44
4.381
4.323
4.268
4.214
4.163
4.116
4.071
5.433
5.427
5.417
5.403
5.386
5.365
5.34
5.311
5.279
5.244
5.206
5.164
5.12
5.073
5.024
4.972
4.918
4.862
4.805
4.747
4.688
4.629
4.569
4.509
4.45
4.392
4.335
4.28
4.227
4.177
4.13
4.086
5.362
5.356
5.345
5.331
5.313
5.29
5.264
5.234
5.201
5.164
5.123
5.08
5.033
4.984
4.932
4.878
4.822
4.764
4.705
4.645
4.584
4.522
4.46
4.399
4.338
4.279
4.221
4.165
4.111
4.06
4.012
3.968
5.362
5.356
5.345
5.331
5.313
5.29
5.264
5.235
5.201
5.164
5.124
5.081
5.034
4.985
4.934
4.88
4.824
4.766
4.707
4.647
4.586
4.525
4.464
4.402
4.342
4.283
4.225
4.169
4.116
4.065
4.017
3.973
5.361
5.355
5.345
5.331
5.313
5.29
5.265
5.235
5.202
5.165
5.125
5.082
5.036
4.988
4.936
4.883
4.828
4.77
4.712
4.652
4.592
4.531
4.47
4.409
4.349
4.291
4.233
4.178
4.125
4.074
4.027
3.983
5.36
5.354
5.344
5.33
5.312
5.29
5.265
5.236
5.203
5.167
5.127
5.085
5.039
4.991
4.941
4.888
4.833
4.776
4.718
4.659
4.6
4.54
4.479
4.419
4.36
4.302
4.246
4.191
4.138
4.088
4.042
3.998
5.291
5.285
5.274
5.259
5.24
5.217
5.19
5.159
5.125
5.087
5.045
5.001
4.953
4.902
4.849
4.794
4.737
4.678
4.618
4.557
4.495
4.432
4.37
4.309
4.248
4.188
4.13
4.074
4.021
3.97
3.922
3.878
5.291
5.284
5.274
5.259
5.24
5.217
5.19
5.16
5.125
5.087
5.046
5.001
4.954
4.904
4.851
4.796
4.739
4.68
4.62
4.559
4.497
4.436
4.374
4.312
4.252
4.192
4.134
4.079
4.025
3.975
3.927
3.884
5.29
5.284
5.274
5.259
5.24
5.217
5.191
5.16
5.126
5.088
5.047
5.003
4.956
4.906
4.854
4.799
4.743
4.684
4.625
4.564
4.503
4.442
4.38
4.319
4.259
4.2
4.143
4.088
4.035
3.985
3.938
3.894
5.29
5.284
5.273
5.259
5.24
5.218
5.191
5.161
5.127
5.09
5.05
5.006
4.959
4.91
4.858
4.804
4.748
4.691
4.632
4.572
4.512
4.451
4.39
4.33
4.27
4.212
4.156
4.101
4.049
3.999
3.953
3.91
5.221
5.215
5.204
5.189
5.169
5.145
5.117
5.086
5.05
5.011
4.968
4.922
4.873
4.821
4.767
4.711
4.652
4.592
4.531
4.469
4.406
4.343
4.28
4.218
4.157
4.097
4.039
3.983
3.93
3.879
3.832
3.788
5.221
5.215
5.204
5.189
5.169
5.145
5.118
5.086
5.051
5.011
4.969
4.923
4.874
4.823
4.769
4.712
4.654
4.594
4.533
4.471
4.409
4.346
4.284
4.222
4.161
4.101
4.043
3.988
3.934
3.884
3.837
3.794
5.221
5.214
5.204
5.189
5.169
5.146
5.118
5.087
5.052
5.013
4.971
4.925
4.877
4.826
4.772
4.716
4.658
4.599
4.538
4.477
4.415
4.353
4.291
4.229
4.169
4.11
4.052
3.997
3.944
3.894
3.848
3.804
5.22
5.214
5.203
5.188
5.169
5.146
5.119
5.088
5.053
5.015
4.973
4.928
4.88
4.83
4.777
4.722
4.664
4.606
4.546
4.485
4.424
4.362
4.301
4.24
4.18
4.122
4.065
4.011
3.958
3.909
3.863
3.82
5.153
5.146
5.135
5.119
5.099
5.075
5.046
5.013
4.976
4.936
4.892
4.845
4.794
4.741
4.686
4.628
4.568
4.507
4.444
4.381
4.317
4.254
4.19
4.127
4.066
4.006
3.947
3.891
3.838
3.788
3.741
3.697
5.153
5.146
5.135
5.119
5.099
5.075
5.046
5.014
4.977
4.937
4.893
4.846
4.796
4.743
4.687
4.63
4.57
4.509
4.447
4.384
4.321
4.257
4.194
4.131
4.07
4.01
3.952
3.896
3.843
3.793
3.746
3.703
5.153
5.146
5.135
5.119
5.1
5.075
5.047
5.015
4.978
4.938
4.895
4.848
4.798
4.746
4.691
4.634
4.575
4.514
4.452
4.39
4.327
4.264
4.201
4.139
4.078
4.019
3.961
3.906
3.853
3.803
3.757
3.714
5.152
5.146
5.135
5.12
5.1
5.076
5.048
5.016
4.98
4.941
4.898
4.851
4.802
4.75
4.696
4.639
4.581
4.521
4.46
4.399
4.336
4.274
4.212
4.151
4.09
4.032
3.975
3.92
3.868
3.819
3.773
3.73
5.086
5.079
5.068
5.051
5.031
5.005
4.976
4.942
4.904
4.862
4.817
4.768
4.716
4.662
4.605
4.545
4.484
4.422
4.358
4.294
4.229
4.164
4.1
4.037
3.975
3.914
3.856
3.799
3.746
3.696
3.649
3.605
5.086
5.079
5.068
5.051
5.031
5.006
4.976
4.942
4.905
4.863
4.818
4.769
4.718
4.663
4.607
4.548
4.487
4.424
4.361
4.297
4.232
4.168
4.104
4.041
3.979
3.919
3.86
3.804
3.751
3.701
3.654
3.611
5.086
5.079
5.068
5.052
5.031
5.006
4.977
4.943
4.906
4.865
4.82
4.772
4.721
4.667
4.61
4.552
4.491
4.43
4.367
4.303
4.239
4.175
4.112
4.049
3.987
3.928
3.87
3.814
3.761
3.712
3.665
3.622
5.086
5.079
5.068
5.052
5.032
5.007
4.978
4.945
4.908
4.867
4.823
4.775
4.725
4.672
4.616
4.558
4.498
4.437
4.375
4.312
4.249
4.186
4.123
4.061
4
3.941
3.884
3.829
3.777
3.727
3.682
3.639
5.02
5.013
5.001
4.985
4.963
4.937
4.906
4.871
4.832
4.789
4.743
4.692
4.639
4.583
4.524
4.464
4.401
4.337
4.272
4.207
4.141
4.075
4.01
3.946
3.883
3.822
3.763
3.707
3.653
3.603
3.556
3.513
5.02
5.013
5.002
4.985
4.963
4.937
4.907
4.872
4.833
4.79
4.744
4.694
4.641
4.585
4.526
4.466
4.404
4.34
4.275
4.21
4.144
4.079
4.014
3.95
3.888
3.827
3.768
3.712
3.658
3.608
3.561
3.519
5.02
5.014
5.002
4.985
4.964
4.938
4.908
4.873
4.835
4.792
4.746
4.696
4.644
4.588
4.53
4.47
4.409
4.345
4.281
4.216
4.151
4.086
4.022
3.958
3.896
3.836
3.778
3.722
3.669
3.619
3.573
3.53
5.02
5.014
5.002
4.986
4.965
4.939
4.909
4.875
4.837
4.795
4.749
4.7
4.648
4.593
4.536
4.477
4.416
4.353
4.29
4.226
4.161
4.097
4.034
3.971
3.91
3.85
3.792
3.737
3.685
3.635
3.59
3.547
4.956
4.949
4.937
4.919
4.897
4.87
4.838
4.802
4.762
4.717
4.669
4.617
4.563
4.505
4.445
4.382
4.318
4.253
4.187
4.12
4.053
3.986
3.92
3.855
3.791
3.73
3.67
3.614
3.56
3.509
3.462
3.419
4.956
4.949
4.937
4.92
4.897
4.871
4.839
4.803
4.763
4.718
4.67
4.619
4.564
4.507
4.447
4.385
4.321
4.256
4.19
4.123
4.056
3.99
3.924
3.859
3.796
3.735
3.675
3.619
3.565
3.515
3.468
3.425
4.956
4.949
4.937
4.92
4.898
4.871
4.84
4.804
4.764
4.72
4.673
4.622
4.568
4.51
4.451
4.389
4.326
4.261
4.196
4.13
4.063
3.997
3.932
3.868
3.805
3.744
3.685
3.629
3.576
3.526
3.48
3.437
4.956
4.95
4.938
4.921
4.899
4.873
4.842
4.806
4.767
4.723
4.676
4.626
4.572
4.516
4.457
4.396
4.334
4.27
4.205
4.14
4.074
4.009
3.944
3.881
3.819
3.759
3.7
3.645
3.592
3.543
3.497
3.455
4.893
4.886
4.873
4.855
4.832
4.804
4.771
4.734
4.692
4.646
4.597
4.543
4.487
4.427
4.365
4.301
4.236
4.169
4.101
4.033
3.964
3.896
3.829
3.763
3.699
3.637
3.577
3.52
3.466
3.415
3.368
3.325
4.893
4.886
4.873
4.855
4.833
4.805
4.772
4.735
4.693
4.647
4.598
4.545
4.488
4.429
4.368
4.304
4.238
4.172
4.104
4.036
3.968
3.9
3.834
3.768
3.704
3.642
3.582
3.525
3.471
3.421
3.374
3.331
4.893
4.886
4.874
4.856
4.833
4.806
4.773
4.736
4.695
4.65
4.6
4.548
4.492
4.433
4.372
4.309
4.244
4.178
4.111
4.043
3.976
3.909
3.842
3.777
3.713
3.652
3.593
3.536
3.482
3.432
3.386
3.343
4.894
4.887
4.874
4.857
4.834
4.807
4.775
4.739
4.698
4.653
4.604
4.552
4.497
4.439
4.379
4.316
4.252
4.187
4.12
4.054
3.987
3.92
3.855
3.79
3.728
3.667
3.608
3.552
3.499
3.45
3.404
3.361
4.831
4.823
4.81
4.792
4.768
4.739
4.705
4.667
4.624
4.576
4.525
4.47
4.411
4.35
4.287
4.221
4.153
4.085
4.015
3.946
3.876
3.807
3.739
3.672
3.607
3.544
3.483
3.425
3.371
3.32
3.272
3.229
4.831
4.824
4.811
4.792
4.769
4.74
4.706
4.668
4.625
4.577
4.526
4.471
4.413
4.352
4.289
4.223
4.156
4.088
4.019
3.949
3.88
3.811
3.743
3.676
3.612
3.549
3.488
3.431
3.377
3.326
3.279
3.235
4.831
4.824
4.811
4.793
4.77
4.741
4.708
4.669
4.627
4.58
4.529
4.475
4.417
4.356
4.294
4.229
4.162
4.094
4.026
3.957
3.888
3.819
3.752
3.686
3.621
3.559
3.499
3.442
3.388
3.338
3.291
3.248
4.832
4.825
4.812
4.794
4.771
4.743
4.709
4.672
4.63
4.583
4.533
4.479
4.422
4.363
4.301
4.236
4.171
4.104
4.036
3.968
3.9
3.832
3.765
3.7
3.636
3.575
3.515
3.459
3.406
3.356
3.309
3.267
4.77
4.763
4.749
4.73
4.706
4.676
4.64
4.6
4.556
4.507
4.453
4.397
4.337
4.274
4.208
4.14
4.071
4.001
3.93
3.859
3.787
3.717
3.648
3.58
3.514
3.45
3.389
3.33
3.275
3.224
3.176
3.133
4.77
4.763
4.75
4.731
4.706
4.676
4.641
4.601
4.557
4.508
4.455
4.398
4.339
4.276
4.211
4.143
4.074
4.004
3.933
3.862
3.792
3.721
3.652
3.585
3.519
3.455
3.394
3.336
3.281
3.23
3.183
3.139
4.771
4.763
4.75
4.731
4.707
4.677
4.643
4.603
4.559
4.51
4.458
4.402
4.342
4.28
4.215
4.149
4.08
4.011
3.941
3.87
3.8
3.73
3.662
3.594
3.529
3.466
3.405
3.348
3.293
3.243
3.195
3.152
4.771
4.764
4.751
4.732
4.708
4.679
4.645
4.606
4.562
4.514
4.462
4.407
4.348
4.287
4.223
4.157
4.089
4.021
3.951
3.882
3.812
3.743
3.675
3.609
3.544
3.482
3.422
3.365
3.311
3.261
3.214
3.172
4.711
4.703
4.689
4.669
4.644
4.613
4.576
4.535
4.489
4.438
4.383
4.324
4.262
4.197
4.13
4.06
3.989
3.917
3.844
3.771
3.699
3.627
3.556
3.487
3.42
3.355
3.294
3.235
3.179
3.127
3.08
3.036
4.711
4.703
4.689
4.67
4.644
4.614
4.577
4.536
4.49
4.439
4.385
4.326
4.264
4.2
4.132
4.063
3.993
3.921
3.848
3.776
3.703
3.632
3.561
3.492
3.425
3.361
3.299
3.241
3.185
3.134
3.086
3.043
4.711
4.704
4.69
4.671
4.645
4.615
4.579
4.538
4.492
4.442
4.388
4.33
4.269
4.204
4.138
4.069
3.999
3.928
3.856
3.784
3.712
3.641
3.571
3.502
3.436
3.372
3.311
3.253
3.198
3.147
3.099
3.056
4.712
4.705
4.691
4.672
4.647
4.617
4.581
4.541
4.496
4.446
4.392
4.335
4.275
4.211
4.145
4.078
4.008
3.938
3.867
3.795
3.724
3.654
3.585
3.518
3.452
3.389
3.328
3.271
3.216
3.166
3.119
3.076
4.652
4.644
4.63
4.61
4.583
4.551
4.513
4.47
4.422
4.37
4.313
4.252
4.188
4.121
4.052
3.98
3.907
3.833
3.759
3.684
3.61
3.537
3.465
3.394
3.326
3.261
3.198
3.138
3.082
3.03
2.982
2.938
4.653
4.645
4.63
4.61
4.584
4.552
4.514
4.471
4.424
4.371
4.315
4.254
4.191
4.124
4.055
3.984
3.911
3.837
3.763
3.688
3.615
3.541
3.47
3.4
3.332
3.266
3.204
3.145
3.089
3.037
2.989
2.945
4.653
4.645
4.631
4.611
4.585
4.553
4.516
4.474
4.426
4.374
4.318
4.258
4.195
4.129
4.06
3.99
3.917
3.844
3.771
3.697
3.623
3.551
3.48
3.41
3.343
3.278
3.216
3.157
3.102
3.05
3.002
2.959
4.654
4.646
4.632
4.612
4.587
4.555
4.519
4.477
4.43
4.379
4.323
4.264
4.202
4.136
4.068
3.999
3.927
3.855
3.782
3.709
3.637
3.565
3.495
3.426
3.359
3.295
3.234
3.176
3.121
3.07
3.022
2.979
5.061
5.128
5.098
5.192
5.163
5.136
5.249
5.222
5.197
5.174
5.297
5.273
5.25
5.229
5.208
5.33
5.308
5.286
5.266
5.247
5.229
5.975
5.97
5.962
5.95
5.936
5.919
5.899
5.876
5.85
5.821
5.789
5.754
5.717
5.677
5.634
5.589
5.541
5.491
5.439
5.386
5.33
5.273
5.215
5.155
5.096
5.036
4.976
4.917
4.86
4.804
4.75
4.7
5.969
5.964
5.956
5.945
5.931
5.914
5.894
5.872
5.846
5.818
5.786
5.752
5.716
5.676
5.634
5.59
5.544
5.495
5.444
5.391
5.337
5.281
5.224
5.166
5.107
5.049
4.991
4.933
4.877
4.822
4.77
4.721
5.962
5.957
5.949
5.938
5.925
5.908
5.889
5.867
5.842
5.814
5.783
5.75
5.714
5.676
5.635
5.592
5.546
5.498
5.449
5.397
5.344
5.29
5.234
5.178
5.121
5.064
5.008
4.952
4.897
4.844
4.794
4.746
5.953
5.948
5.941
5.93
5.917
5.901
5.882
5.86
5.836
5.809
5.779
5.747
5.712
5.675
5.635
5.593
5.548
5.502
5.454
5.404
5.352
5.3
5.246
5.191
5.136
5.081
5.026
4.972
4.92
4.869
4.82
4.774
5.943
5.938
5.931
5.92
5.908
5.892
5.874
5.853
5.829
5.803
5.774
5.743
5.709
5.673
5.634
5.593
5.551
5.506
5.459
5.411
5.361
5.31
5.258
5.206
5.153
5.1
5.047
4.995
4.945
4.896
4.849
4.805
5.93
5.926
5.919
5.909
5.896
5.881
5.864
5.843
5.821
5.795
5.768
5.737
5.705
5.67
5.633
5.594
5.552
5.509
5.464
5.418
5.37
5.321
5.272
5.221
5.17
5.12
5.069
5.019
4.971
4.924
4.88
4.838
5.916
5.912
5.905
5.895
5.883
5.869
5.852
5.832
5.811
5.786
5.76
5.731
5.699
5.666
5.63
5.593
5.553
5.512
5.469
5.425
5.379
5.333
5.285
5.237
5.189
5.14
5.092
5.045
4.999
4.955
4.912
4.872
5.899
5.895
5.888
5.879
5.868
5.854
5.838
5.819
5.798
5.775
5.75
5.722
5.692
5.661
5.627
5.591
5.553
5.514
5.473
5.431
5.388
5.344
5.299
5.253
5.207
5.161
5.116
5.072
5.028
4.986
4.947
4.909
5.88
5.876
5.87
5.861
5.85
5.837
5.822
5.804
5.784
5.762
5.738
5.712
5.684
5.654
5.621
5.588
5.552
5.515
5.477
5.437
5.396
5.354
5.312
5.269
5.226
5.183
5.141
5.099
5.058
5.019
4.982
4.947
5.858
5.854
5.848
5.84
5.83
5.817
5.803
5.786
5.768
5.747
5.724
5.699
5.673
5.644
5.614
5.583
5.549
5.514
5.478
5.441
5.403
5.364
5.325
5.285
5.245
5.205
5.165
5.127
5.089
5.053
5.018
4.986
5.832
5.829
5.823
5.816
5.806
5.794
5.781
5.765
5.748
5.729
5.707
5.684
5.66
5.633
5.605
5.575
5.544
5.512
5.479
5.444
5.409
5.373
5.336
5.3
5.263
5.226
5.19
5.154
5.12
5.087
5.055
5.026
5.803
5.8
5.795
5.788
5.779
5.769
5.756
5.742
5.726
5.708
5.688
5.667
5.644
5.619
5.593
5.566
5.537
5.508
5.477
5.445
5.413
5.38
5.347
5.313
5.28
5.247
5.214
5.182
5.151
5.121
5.093
5.066
5.771
5.768
5.763
5.757
5.749
5.739
5.728
5.715
5.7
5.683
5.665
5.646
5.625
5.602
5.579
5.554
5.528
5.501
5.473
5.444
5.415
5.386
5.356
5.326
5.296
5.266
5.237
5.208
5.181
5.155
5.13
5.107
5.736
5.734
5.73
5.724
5.717
5.708
5.698
5.686
5.672
5.657
5.641
5.623
5.604
5.583
5.562
5.539
5.516
5.491
5.466
5.441
5.414
5.388
5.362
5.335
5.309
5.283
5.257
5.232
5.208
5.185
5.164
5.144
5.711
5.709
5.705
5.7
5.694
5.685
5.676
5.664
5.651
5.637
5.622
5.605
5.587
5.568
5.548
5.527
5.505
5.482
5.459
5.435
5.411
5.387
5.363
5.338
5.314
5.291
5.267
5.245
5.224
5.203
5.184
5.166
5.893
5.888
5.879
5.868
5.853
5.836
5.815
5.791
5.764
5.735
5.702
5.667
5.629
5.588
5.544
5.498
5.45
5.4
5.347
5.293
5.237
5.18
5.122
5.063
5.004
4.945
4.886
4.828
4.772
4.717
4.665
4.616
5.888
5.883
5.875
5.863
5.849
5.832
5.811
5.788
5.762
5.733
5.701
5.666
5.628
5.588
5.546
5.501
5.453
5.404
5.353
5.299
5.245
5.189
5.132
5.074
5.016
4.959
4.901
4.845
4.79
4.736
4.686
4.638
5.882
5.877
5.869
5.858
5.844
5.827
5.807
5.784
5.758
5.73
5.698
5.664
5.628
5.589
5.547
5.503
5.457
5.409
5.359
5.307
5.253
5.199
5.143
5.087
5.031
4.975
4.919
4.864
4.81
4.759
4.709
4.663
5.874
5.869
5.861
5.85
5.837
5.82
5.801
5.779
5.754
5.726
5.695
5.662
5.627
5.589
5.548
5.505
5.461
5.414
5.365
5.315
5.263
5.21
5.156
5.102
5.047
4.993
4.939
4.886
4.834
4.784
4.736
4.692
5.865
5.86
5.852
5.842
5.829
5.812
5.794
5.772
5.748
5.721
5.692
5.66
5.625
5.588
5.549
5.508
5.464
5.419
5.372
5.323
5.273
5.222
5.17
5.118
5.065
5.013
4.961
4.909
4.86
4.812
4.766
4.723
5.854
5.849
5.842
5.831
5.819
5.803
5.785
5.764
5.741
5.715
5.687
5.656
5.622
5.587
5.549
5.509
5.468
5.424
5.379
5.332
5.284
5.235
5.185
5.135
5.084
5.034
4.984
4.935
4.887
4.842
4.798
4.757
5.841
5.836
5.829
5.819
5.807
5.792
5.775
5.755
5.732
5.708
5.68
5.651
5.619
5.585
5.549
5.51
5.47
5.429
5.385
5.341
5.295
5.248
5.2
5.152
5.104
5.056
5.009
4.962
4.917
4.873
4.832
4.793
5.825
5.821
5.814
5.805
5.793
5.779
5.763
5.744
5.722
5.698
5.672
5.644
5.614
5.581
5.547
5.51
5.472
5.433
5.392
5.349
5.305
5.261
5.216
5.17
5.125
5.079
5.035
4.991
4.948
4.907
4.868
4.831
5.808
5.804
5.797
5.788
5.777
5.764
5.748
5.73
5.71
5.687
5.663
5.636
5.607
5.576
5.544
5.509
5.473
5.436
5.397
5.357
5.316
5.274
5.231
5.189
5.146
5.103
5.061
5.02
4.98
4.941
4.905
4.87
5.788
5.784
5.778
5.769
5.759
5.746
5.731
5.714
5.695
5.674
5.651
5.626
5.599
5.57
5.539
5.507
5.473
5.438
5.401
5.364
5.325
5.286
5.247
5.207
5.167
5.127
5.088
5.05
5.013
4.977
4.943
4.911
5.764
5.761
5.755
5.747
5.738
5.726
5.712
5.696
5.678
5.658
5.637
5.613
5.588
5.561
5.532
5.502
5.471
5.438
5.404
5.37
5.334
5.298
5.261
5.224
5.188
5.151
5.115
5.08
5.046
5.013
4.982
4.953
5.738
5.734
5.729
5.722
5.713
5.702
5.689
5.675
5.658
5.64
5.62
5.598
5.575
5.55
5.524
5.496
5.467
5.437
5.406
5.374
5.341
5.308
5.275
5.241
5.208
5.175
5.142
5.11
5.079
5.05
5.022
4.996
5.708
5.705
5.7
5.694
5.686
5.676
5.664
5.651
5.635
5.619
5.6
5.58
5.559
5.536
5.512
5.487
5.46
5.433
5.405
5.376
5.347
5.317
5.287
5.257
5.227
5.197
5.168
5.14
5.112
5.086
5.062
5.039
5.676
5.673
5.669
5.664
5.656
5.647
5.637
5.624
5.611
5.595
5.578
5.56
5.541
5.52
5.498
5.475
5.451
5.427
5.402
5.376
5.349
5.323
5.296
5.269
5.243
5.217
5.191
5.166
5.143
5.12
5.098
5.079
5.652
5.65
5.647
5.642
5.635
5.626
5.616
5.605
5.592
5.577
5.562
5.545
5.526
5.507
5.486
5.465
5.443
5.42
5.397
5.373
5.348
5.324
5.299
5.275
5.251
5.227
5.204
5.181
5.16
5.139
5.12
5.102
5.812
5.807
5.799
5.787
5.772
5.754
5.732
5.708
5.681
5.65
5.617
5.58
5.541
5.5
5.456
5.409
5.36
5.309
5.256
5.202
5.146
5.088
5.03
4.972
4.913
4.854
4.796
4.739
4.684
4.631
4.58
4.532
5.808
5.803
5.794
5.783
5.768
5.75
5.729
5.705
5.679
5.649
5.616
5.58
5.542
5.501
5.458
5.412
5.364
5.314
5.262
5.209
5.154
5.098
5.041
4.984
4.926
4.869
4.812
4.757
4.702
4.65
4.601
4.554
5.803
5.797
5.789
5.778
5.763
5.746
5.726
5.702
5.676
5.647
5.615
5.58
5.542
5.503
5.46
5.415
5.369
5.32
5.269
5.217
5.164
5.109
5.054
4.998
4.942
4.886
4.831
4.777
4.724
4.673
4.625
4.58
5.796
5.791
5.783
5.772
5.758
5.741
5.721
5.698
5.672
5.644
5.613
5.579
5.542
5.504
5.462
5.419
5.374
5.326
5.277
5.226
5.174
5.121
5.068
5.013
4.959
4.905
4.851
4.799
4.748
4.699
4.653
4.609
5.787
5.783
5.775
5.764
5.75
5.734
5.715
5.693
5.668
5.64
5.61
5.577
5.542
5.504
5.465
5.423
5.379
5.333
5.285
5.236
5.186
5.135
5.083
5.03
4.978
4.926
4.874
4.824
4.775
4.728
4.683
4.641
5.778
5.773
5.765
5.755
5.742
5.726
5.707
5.686
5.662
5.636
5.606
5.575
5.541
5.505
5.466
5.426
5.383
5.339
5.294
5.246
5.198
5.149
5.099
5.049
4.999
4.949
4.899
4.851
4.804
4.759
4.716
4.676
5.766
5.761
5.754
5.744
5.732
5.716
5.698
5.678
5.655
5.63
5.602
5.571
5.539
5.504
5.467
5.429
5.388
5.346
5.302
5.257
5.211
5.164
5.116
5.068
5.02
4.973
4.926
4.88
4.835
4.792
4.751
4.713
5.752
5.748
5.741
5.731
5.719
5.705
5.688
5.668
5.646
5.622
5.595
5.567
5.536
5.503
5.467
5.431
5.392
5.352
5.31
5.267
5.223
5.179
5.134
5.088
5.043
4.998
4.953
4.91
4.867
4.827
4.788
4.752
5.736
5.732
5.726
5.717
5.705
5.691
5.675
5.657
5.636
5.613
5.588
5.56
5.531
5.5
5.466
5.432
5.395
5.357
5.318
5.277
5.236
5.194
5.151
5.109
5.066
5.023
4.982
4.941
4.901
4.863
4.827
4.793
5.718
5.714
5.708
5.699
5.688
5.675
5.66
5.643
5.623
5.602
5.578
5.552
5.525
5.495
5.464
5.431
5.397
5.361
5.325
5.287
5.248
5.209
5.169
5.129
5.089
5.05
5.011
4.973
4.936
4.901
4.867
4.836
5.697
5.693
5.687
5.679
5.669
5.657
5.643
5.627
5.608
5.588
5.566
5.542
5.516
5.489
5.46
5.429
5.397
5.364
5.33
5.295
5.259
5.223
5.186
5.149
5.112
5.076
5.04
5.005
4.971
4.939
4.909
4.88
5.672
5.669
5.663
5.656
5.647
5.636
5.623
5.608
5.591
5.572
5.552
5.53
5.506
5.48
5.454
5.426
5.396
5.366
5.334
5.302
5.269
5.236
5.203
5.169
5.135
5.102
5.07
5.038
5.008
4.978
4.951
4.925
5.644
5.641
5.637
5.63
5.622
5.612
5.6
5.586
5.571
5.553
5.535
5.514
5.493
5.469
5.445
5.419
5.393
5.365
5.337
5.307
5.278
5.248
5.218
5.187
5.157
5.128
5.099
5.07
5.043
5.017
4.993
4.97
5.615
5.612
5.608
5.603
5.595
5.586
5.575
5.562
5.548
5.533
5.516
5.497
5.477
5.456
5.434
5.411
5.387
5.362
5.336
5.31
5.283
5.257
5.23
5.203
5.176
5.15
5.125
5.1
5.076
5.053
5.032
5.012
5.593
5.591
5.587
5.582
5.575
5.566
5.556
5.545
5.531
5.517
5.501
5.483
5.465
5.445
5.424
5.403
5.38
5.357
5.333
5.309
5.285
5.26
5.235
5.211
5.186
5.162
5.139
5.117
5.095
5.075
5.055
5.038
5.733
5.728
5.719
5.707
5.692
5.673
5.651
5.626
5.598
5.567
5.533
5.495
5.456
5.413
5.368
5.321
5.271
5.219
5.166
5.111
5.055
4.997
4.939
4.881
4.822
4.764
4.707
4.651
4.596
4.544
4.495
4.448
5.73
5.724
5.716
5.704
5.689
5.67
5.649
5.624
5.597
5.566
5.532
5.496
5.457
5.415
5.371
5.325
5.276
5.225
5.173
5.119
5.064
5.008
4.951
4.894
4.836
4.78
4.723
4.669
4.615
4.564
4.516
4.47
5.725
5.72
5.711
5.699
5.685
5.667
5.646
5.622
5.595
5.565
5.532
5.496
5.458
5.417
5.374
5.329
5.281
5.232
5.181
5.128
5.074
5.02
4.964
4.908
4.853
4.797
4.743
4.689
4.638
4.588
4.541
4.497
5.719
5.714
5.705
5.694
5.68
5.662
5.642
5.618
5.592
5.563
5.531
5.496
5.459
5.42
5.378
5.334
5.287
5.239
5.19
5.139
5.086
5.033
4.979
4.925
4.871
4.817
4.765
4.713
4.663
4.615
4.569
4.526
5.711
5.707
5.698
5.687
5.673
5.657
5.637
5.614
5.589
5.56
5.529
5.496
5.46
5.422
5.381
5.338
5.294
5.247
5.199
5.15
5.099
5.048
4.996
4.944
4.891
4.84
4.789
4.739
4.69
4.644
4.6
4.559
5.703
5.698
5.69
5.679
5.666
5.65
5.631
5.609
5.584
5.557
5.527
5.495
5.46
5.423
5.384
5.343
5.3
5.255
5.209
5.162
5.113
5.064
5.014
4.964
4.913
4.864
4.815
4.767
4.721
4.676
4.634
4.595
5.692
5.688
5.68
5.67
5.657
5.641
5.623
5.602
5.578
5.552
5.524
5.493
5.46
5.424
5.387
5.347
5.306
5.263
5.219
5.174
5.127
5.08
5.032
4.985
4.937
4.889
4.843
4.797
4.753
4.711
4.671
4.633
5.68
5.675
5.668
5.658
5.646
5.631
5.614
5.594
5.571
5.546
5.519
5.49
5.458
5.424
5.389
5.351
5.312
5.271
5.229
5.186
5.142
5.097
5.052
5.006
4.961
4.916
4.872
4.829
4.787
4.747
4.709
4.674
5.665
5.661
5.654
5.645
5.633
5.619
5.603
5.584
5.562
5.539
5.513
5.485
5.455
5.423
5.39
5.354
5.317
5.279
5.239
5.198
5.156
5.114
5.072
5.029
4.986
4.944
4.902
4.862
4.822
4.785
4.75
4.716
5.649
5.645
5.638
5.629
5.618
5.605
5.59
5.572
5.552
5.53
5.505
5.479
5.451
5.421
5.389
5.356
5.321
5.285
5.248
5.21
5.171
5.131
5.091
5.051
5.012
4.972
4.933
4.896
4.859
4.824
4.791
4.761
5.629
5.625
5.619
5.611
5.601
5.589
5.574
5.557
5.539
5.518
5.496
5.471
5.445
5.417
5.387
5.356
5.324
5.291
5.256
5.221
5.184
5.148
5.111
5.074
5.037
5.001
4.965
4.93
4.897
4.865
4.835
4.806
5.606
5.603
5.598
5.59
5.581
5.569
5.556
5.541
5.523
5.504
5.483
5.461
5.437
5.411
5.384
5.355
5.325
5.295
5.263
5.23
5.197
5.164
5.13
5.096
5.063
5.03
4.997
4.966
4.935
4.906
4.879
4.853
5.581
5.578
5.573
5.566
5.558
5.547
5.535
5.521
5.505
5.488
5.469
5.448
5.426
5.402
5.378
5.352
5.325
5.297
5.268
5.238
5.208
5.178
5.148
5.118
5.088
5.058
5.029
5.001
4.974
4.948
4.924
4.901
5.553
5.551
5.547
5.541
5.533
5.524
5.513
5.5
5.486
5.47
5.452
5.433
5.413
5.392
5.369
5.346
5.321
5.296
5.27
5.244
5.217
5.19
5.163
5.136
5.109
5.083
5.058
5.033
5.009
4.986
4.965
4.945
5.533
5.531
5.527
5.522
5.515
5.506
5.496
5.484
5.47
5.455
5.439
5.421
5.402
5.382
5.361
5.34
5.317
5.293
5.269
5.245
5.22
5.195
5.17
5.145
5.121
5.097
5.074
5.051
5.03
5.009
4.99
4.972
5.656
5.65
5.641
5.629
5.613
5.594
5.571
5.545
5.517
5.485
5.45
5.412
5.371
5.327
5.282
5.233
5.183
5.131
5.077
5.021
4.965
4.907
4.849
4.791
4.732
4.675
4.618
4.562
4.509
4.457
4.409
4.363
5.652
5.647
5.638
5.626
5.61
5.592
5.569
5.544
5.516
5.484
5.45
5.413
5.373
5.33
5.285
5.238
5.189
5.137
5.084
5.03
4.975
4.918
4.861
4.804
4.747
4.691
4.635
4.581
4.528
4.478
4.431
4.386
5.648
5.643
5.634
5.622
5.607
5.589
5.567
5.542
5.515
5.484
5.45
5.414
5.375
5.333
5.289
5.243
5.195
5.145
5.093
5.04
4.986
4.931
4.876
4.82
4.764
4.709
4.655
4.602
4.551
4.502
4.456
4.413
5.643
5.638
5.629
5.618
5.603
5.585
5.564
5.54
5.513
5.483
5.45
5.415
5.377
5.337
5.294
5.249
5.202
5.153
5.103
5.052
4.999
4.946
4.892
4.838
4.784
4.73
4.678
4.627
4.577
4.53
4.485
4.443
5.637
5.631
5.623
5.612
5.598
5.58
5.56
5.537
5.51
5.482
5.45
5.416
5.379
5.34
5.298
5.255
5.21
5.163
5.114
5.064
5.013
4.962
4.91
4.857
4.805
4.754
4.703
4.654
4.606
4.56
4.517
4.477
5.629
5.624
5.616
5.605
5.591
5.574
5.555
5.532
5.507
5.479
5.449
5.416
5.38
5.343
5.303
5.261
5.217
5.172
5.125
5.077
5.028
4.979
4.929
4.879
4.829
4.779
4.73
4.683
4.637
4.594
4.552
4.514
5.619
5.615
5.607
5.596
5.583
5.567
5.548
5.527
5.503
5.476
5.447
5.415
5.381
5.345
5.307
5.267
5.225
5.182
5.137
5.091
5.044
4.997
4.949
4.901
4.853
4.806
4.76
4.715
4.671
4.629
4.59
4.553
5.608
5.604
5.596
5.586
5.574
5.558
5.54
5.52
5.497
5.471
5.444
5.413
5.381
5.347
5.31
5.272
5.233
5.191
5.149
5.105
5.061
5.016
4.97
4.925
4.879
4.835
4.791
4.748
4.706
4.667
4.63
4.595
5.595
5.591
5.584
5.574
5.562
5.548
5.531
5.511
5.49
5.465
5.439
5.411
5.38
5.348
5.313
5.277
5.24
5.201
5.16
5.119
5.077
5.035
4.992
4.949
4.906
4.864
4.823
4.783
4.744
4.707
4.672
4.639
5.58
5.576
5.569
5.56
5.549
5.535
5.519
5.501
5.481
5.458
5.433
5.406
5.378
5.347
5.315
5.281
5.246
5.209
5.172
5.133
5.094
5.054
5.014
4.974
4.934
4.895
4.856
4.819
4.782
4.748
4.715
4.685
5.562
5.558
5.552
5.543
5.533
5.52
5.505
5.489
5.469
5.448
5.425
5.4
5.373
5.345
5.315
5.284
5.251
5.217
5.182
5.146
5.11
5.073
5.036
4.999
4.962
4.926
4.89
4.855
4.822
4.79
4.76
4.733
5.541
5.537
5.532
5.524
5.515
5.503
5.489
5.474
5.456
5.437
5.415
5.392
5.367
5.341
5.314
5.285
5.254
5.223
5.191
5.158
5.125
5.091
5.057
5.024
4.99
4.957
4.924
4.893
4.863
4.834
4.807
4.782
5.517
5.514
5.509
5.502
5.494
5.483
5.471
5.456
5.44
5.422
5.403
5.382
5.359
5.335
5.31
5.284
5.256
5.228
5.199
5.169
5.139
5.108
5.078
5.047
5.017
4.988
4.959
4.93
4.903
4.878
4.854
4.831
5.492
5.489
5.485
5.479
5.471
5.461
5.45
5.437
5.422
5.406
5.389
5.369
5.349
5.327
5.304
5.28
5.256
5.23
5.204
5.177
5.15
5.123
5.096
5.069
5.042
5.015
4.99
4.965
4.941
4.919
4.897
4.878
5.472
5.47
5.467
5.461
5.454
5.445
5.434
5.422
5.409
5.393
5.377
5.359
5.34
5.319
5.298
5.276
5.253
5.229
5.205
5.18
5.155
5.13
5.105
5.08
5.055
5.031