/*--------------------------------*- C++ -*----------------------------------*\
  =========                 |
  \\      /  F ield         | OpenFOAM: The Open Source CFD Toolbox
   \\    /   O peration     | Website:  https://openfoam.org
    \\  /    A nd           | Version:  6
     \\/     M anipulation  |
\*---------------------------------------------------------------------------*/
FoamFile
{
    version     2.0;
    format      ascii;
    class       volScalarField;
    location    "20";
    object      Umag;
}
// * * * * * * * * * * * * * * * * * * * * * * * * * * * * * * * * * * * * * //

dimensions      [0 0 0 0 0 0 0];

internalField   nonuniform List<scalar> 
16128
(
6.303e-06
8.456e-06
8.737e-06
8.905e-06
9.113e-06
9.376e-06
9.697e-06
1.008e-05
1.052e-05
1.103e-05
1.16e-05
1.225e-05
1.297e-05
1.377e-05
1.465e-05
1.561e-05
1.667e-05
1.781e-05
1.906e-05
2.039e-05
2.183e-05
2.336e-05
2.499e-05
2.67e-05
2.85e-05
3.036e-05
3.228e-05
3.423e-05
3.62e-05
3.816e-05
4.007e-05
4.191e-05
6.301e-06
8.454e-06
8.734e-06
8.902e-06
9.11e-06
9.373e-06
9.693e-06
1.007e-05
1.051e-05
1.102e-05
1.159e-05
1.224e-05
1.296e-05
1.375e-05
1.463e-05
1.559e-05
1.664e-05
1.778e-05
1.902e-05
2.035e-05
2.178e-05
2.33e-05
2.491e-05
2.662e-05
2.84e-05
3.025e-05
3.215e-05
3.409e-05
3.603e-05
3.797e-05
3.987e-05
4.169e-05
6.298e-06
8.45e-06
8.73e-06
8.898e-06
9.105e-06
9.366e-06
9.685e-06
1.006e-05
1.05e-05
1.101e-05
1.158e-05
1.222e-05
1.293e-05
1.372e-05
1.459e-05
1.555e-05
1.659e-05
1.772e-05
1.894e-05
2.026e-05
2.167e-05
2.317e-05
2.477e-05
2.645e-05
2.82e-05
3.002e-05
3.189e-05
3.38e-05
3.571e-05
3.762e-05
3.948e-05
4.126e-05
6.294e-06
8.444e-06
8.724e-06
8.891e-06
9.097e-06
9.357e-06
9.674e-06
1.005e-05
1.049e-05
1.099e-05
1.155e-05
1.219e-05
1.29e-05
1.368e-05
1.454e-05
1.548e-05
1.651e-05
1.763e-05
1.883e-05
2.013e-05
2.152e-05
2.299e-05
2.456e-05
2.62e-05
2.792e-05
2.97e-05
3.153e-05
3.338e-05
3.525e-05
3.71e-05
3.891e-05
4.064e-05
6.677e-06
8.955e-06
9.244e-06
9.407e-06
9.607e-06
9.86e-06
1.017e-05
1.053e-05
1.095e-05
1.144e-05
1.198e-05
1.259e-05
1.327e-05
1.403e-05
1.485e-05
1.575e-05
1.673e-05
1.779e-05
1.894e-05
2.016e-05
2.147e-05
2.285e-05
2.432e-05
2.585e-05
2.745e-05
2.909e-05
3.078e-05
3.249e-05
3.42e-05
3.589e-05
3.754e-05
3.912e-05
6.676e-06
8.953e-06
9.242e-06
9.405e-06
9.605e-06
9.857e-06
1.016e-05
1.053e-05
1.095e-05
1.143e-05
1.197e-05
1.259e-05
1.326e-05
1.401e-05
1.483e-05
1.573e-05
1.671e-05
1.776e-05
1.89e-05
2.012e-05
2.142e-05
2.28e-05
2.425e-05
2.578e-05
2.736e-05
2.9e-05
3.067e-05
3.237e-05
3.406e-05
3.574e-05
3.737e-05
3.894e-05
6.673e-06
8.95e-06
9.238e-06
9.4e-06
9.599e-06
9.85e-06
1.016e-05
1.052e-05
1.094e-05
1.142e-05
1.196e-05
1.257e-05
1.324e-05
1.399e-05
1.48e-05
1.569e-05
1.666e-05
1.771e-05
1.884e-05
2.004e-05
2.133e-05
2.27e-05
2.413e-05
2.564e-05
2.72e-05
2.882e-05
3.047e-05
3.213e-05
3.38e-05
3.545e-05
3.706e-05
3.86e-05
6.669e-06
8.944e-06
9.231e-06
9.393e-06
9.592e-06
9.841e-06
1.015e-05
1.05e-05
1.092e-05
1.14e-05
1.194e-05
1.254e-05
1.321e-05
1.395e-05
1.476e-05
1.564e-05
1.66e-05
1.763e-05
1.874e-05
1.993e-05
2.12e-05
2.254e-05
2.396e-05
2.543e-05
2.697e-05
2.855e-05
3.017e-05
3.18e-05
3.343e-05
3.504e-05
3.661e-05
3.811e-05
7.037e-06
9.435e-06
9.731e-06
9.889e-06
1.008e-05
1.032e-05
1.062e-05
1.096e-05
1.137e-05
1.183e-05
1.235e-05
1.292e-05
1.357e-05
1.427e-05
1.505e-05
1.589e-05
1.68e-05
1.778e-05
1.884e-05
1.996e-05
2.115e-05
2.241e-05
2.373e-05
2.511e-05
2.654e-05
2.801e-05
2.95e-05
3.1e-05
3.25e-05
3.397e-05
3.541e-05
3.678e-05
7.036e-06
9.433e-06
9.729e-06
9.887e-06
1.008e-05
1.032e-05
1.061e-05
1.096e-05
1.136e-05
1.182e-05
1.234e-05
1.292e-05
1.356e-05
1.426e-05
1.503e-05
1.587e-05
1.678e-05
1.776e-05
1.881e-05
1.993e-05
2.111e-05
2.237e-05
2.368e-05
2.505e-05
2.647e-05
2.793e-05
2.941e-05
3.09e-05
3.239e-05
3.386e-05
3.528e-05
3.664e-05
7.033e-06
9.429e-06
9.725e-06
9.882e-06
1.007e-05
1.031e-05
1.061e-05
1.095e-05
1.135e-05
1.181e-05
1.232e-05
1.29e-05
1.354e-05
1.424e-05
1.5e-05
1.584e-05
1.674e-05
1.771e-05
1.875e-05
1.986e-05
2.104e-05
2.228e-05
2.358e-05
2.494e-05
2.634e-05
2.778e-05
2.924e-05
3.071e-05
3.218e-05
3.363e-05
3.503e-05
3.636e-05
7.029e-06
9.424e-06
9.719e-06
9.876e-06
1.007e-05
1.031e-05
1.06e-05
1.094e-05
1.134e-05
1.179e-05
1.23e-05
1.288e-05
1.351e-05
1.42e-05
1.496e-05
1.579e-05
1.668e-05
1.764e-05
1.867e-05
1.977e-05
2.093e-05
2.215e-05
2.343e-05
2.477e-05
2.615e-05
2.756e-05
2.899e-05
3.044e-05
3.188e-05
3.329e-05
3.466e-05
3.597e-05
7.381e-06
9.893e-06
1.02e-05
1.035e-05
1.053e-05
1.076e-05
1.104e-05
1.138e-05
1.176e-05
1.22e-05
1.269e-05
1.324e-05
1.384e-05
1.451e-05
1.523e-05
1.602e-05
1.687e-05
1.778e-05
1.876e-05
1.979e-05
2.088e-05
2.203e-05
2.323e-05
2.448e-05
2.576e-05
2.707e-05
2.84e-05
2.973e-05
3.105e-05
3.235e-05
3.361e-05
3.48e-05
7.379e-06
9.891e-06
1.019e-05
1.035e-05
1.053e-05
1.076e-05
1.104e-05
1.137e-05
1.176e-05
1.219e-05
1.268e-05
1.323e-05
1.383e-05
1.45e-05
1.522e-05
1.601e-05
1.685e-05
1.776e-05
1.873e-05
1.976e-05
2.085e-05
2.199e-05
2.319e-05
2.443e-05
2.57e-05
2.701e-05
2.833e-05
2.965e-05
3.097e-05
3.226e-05
3.35e-05
3.469e-05
7.377e-06
9.888e-06
1.019e-05
1.034e-05
1.053e-05
1.076e-05
1.104e-05
1.137e-05
1.175e-05
1.218e-05
1.267e-05
1.322e-05
1.382e-05
1.448e-05
1.52e-05
1.598e-05
1.682e-05
1.772e-05
1.868e-05
1.971e-05
2.079e-05
2.192e-05
2.31e-05
2.433e-05
2.559e-05
2.688e-05
2.819e-05
2.95e-05
3.08e-05
3.207e-05
3.33e-05
3.447e-05
7.373e-06
9.882e-06
1.018e-05
1.034e-05
1.052e-05
1.075e-05
1.103e-05
1.135e-05
1.173e-05
1.217e-05
1.265e-05
1.319e-05
1.379e-05
1.445e-05
1.516e-05
1.593e-05
1.677e-05
1.766e-05
1.862e-05
1.963e-05
2.069e-05
2.181e-05
2.298e-05
2.419e-05
2.543e-05
2.67e-05
2.799e-05
2.927e-05
3.055e-05
3.18e-05
3.301e-05
3.415e-05
7.707e-06
1.033e-05
1.064e-05
1.078e-05
1.096e-05
1.118e-05
1.145e-05
1.177e-05
1.213e-05
1.255e-05
1.301e-05
1.353e-05
1.411e-05
1.473e-05
1.541e-05
1.615e-05
1.694e-05
1.779e-05
1.869e-05
1.965e-05
2.065e-05
2.17e-05
2.279e-05
2.392e-05
2.508e-05
2.626e-05
2.745e-05
2.864e-05
2.982e-05
3.097e-05
3.208e-05
3.313e-05
7.706e-06
1.033e-05
1.063e-05
1.078e-05
1.096e-05
1.118e-05
1.145e-05
1.176e-05
1.213e-05
1.254e-05
1.301e-05
1.353e-05
1.41e-05
1.472e-05
1.54e-05
1.614e-05
1.693e-05
1.777e-05
1.867e-05
1.962e-05
2.062e-05
2.167e-05
2.276e-05
2.388e-05
2.504e-05
2.621e-05
2.739e-05
2.858e-05
2.975e-05
3.089e-05
3.199e-05
3.304e-05
7.703e-06
1.032e-05
1.063e-05
1.078e-05
1.095e-05
1.117e-05
1.144e-05
1.176e-05
1.212e-05
1.253e-05
1.3e-05
1.351e-05
1.408e-05
1.47e-05
1.538e-05
1.611e-05
1.69e-05
1.774e-05
1.863e-05
1.957e-05
2.057e-05
2.161e-05
2.269e-05
2.38e-05
2.495e-05
2.611e-05
2.728e-05
2.845e-05
2.961e-05
3.074e-05
3.183e-05
3.287e-05
7.7e-06
1.032e-05
1.063e-05
1.077e-05
1.095e-05
1.117e-05
1.143e-05
1.175e-05
1.211e-05
1.252e-05
1.298e-05
1.349e-05
1.406e-05
1.468e-05
1.535e-05
1.608e-05
1.685e-05
1.769e-05
1.857e-05
1.951e-05
2.049e-05
2.152e-05
2.258e-05
2.369e-05
2.481e-05
2.596e-05
2.712e-05
2.827e-05
2.941e-05
3.052e-05
3.159e-05
3.261e-05
8.014e-06
1.074e-05
1.105e-05
1.12e-05
1.137e-05
1.158e-05
1.183e-05
1.213e-05
1.248e-05
1.288e-05
1.332e-05
1.381e-05
1.435e-05
1.494e-05
1.558e-05
1.627e-05
1.701e-05
1.78e-05
1.864e-05
1.952e-05
2.045e-05
2.141e-05
2.242e-05
2.345e-05
2.45e-05
2.556e-05
2.664e-05
2.771e-05
2.876e-05
2.979e-05
3.078e-05
3.171e-05
8.013e-06
1.074e-05
1.105e-05
1.119e-05
1.136e-05
1.157e-05
1.183e-05
1.213e-05
1.248e-05
1.287e-05
1.331e-05
1.381e-05
1.434e-05
1.493e-05
1.557e-05
1.626e-05
1.7e-05
1.779e-05
1.862e-05
1.95e-05
2.043e-05
2.139e-05
2.238e-05
2.341e-05
2.446e-05
2.552e-05
2.659e-05
2.765e-05
2.87e-05
2.972e-05
3.071e-05
3.164e-05
8.011e-06
1.073e-05
1.105e-05
1.119e-05
1.136e-05
1.157e-05
1.182e-05
1.212e-05
1.247e-05
1.286e-05
1.33e-05
1.379e-05
1.433e-05
1.492e-05
1.555e-05
1.624e-05
1.698e-05
1.776e-05
1.859e-05
1.946e-05
2.038e-05
2.134e-05
2.233e-05
2.334e-05
2.438e-05
2.544e-05
2.65e-05
2.755e-05
2.859e-05
2.96e-05
3.057e-05
3.15e-05
8.008e-06
1.073e-05
1.104e-05
1.118e-05
1.135e-05
1.156e-05
1.182e-05
1.212e-05
1.246e-05
1.285e-05
1.329e-05
1.378e-05
1.431e-05
1.49e-05
1.553e-05
1.621e-05
1.694e-05
1.772e-05
1.854e-05
1.941e-05
2.031e-05
2.126e-05
2.224e-05
2.325e-05
2.427e-05
2.532e-05
2.636e-05
2.74e-05
2.843e-05
2.942e-05
3.038e-05
3.129e-05
8.303e-06
1.112e-05
1.144e-05
1.158e-05
1.174e-05
1.195e-05
1.219e-05
1.248e-05
1.281e-05
1.318e-05
1.36e-05
1.407e-05
1.458e-05
1.514e-05
1.574e-05
1.639e-05
1.708e-05
1.782e-05
1.86e-05
1.942e-05
2.028e-05
2.117e-05
2.209e-05
2.303e-05
2.399e-05
2.496e-05
2.594e-05
2.69e-05
2.785e-05
2.878e-05
2.966e-05
3.05e-05
8.302e-06
1.112e-05
1.144e-05
1.158e-05
1.174e-05
1.194e-05
1.219e-05
1.247e-05
1.281e-05
1.318e-05
1.36e-05
1.407e-05
1.458e-05
1.513e-05
1.573e-05
1.638e-05
1.707e-05
1.781e-05
1.859e-05
1.94e-05
2.026e-05
2.115e-05
2.206e-05
2.3e-05
2.396e-05
2.493e-05
2.59e-05
2.686e-05
2.781e-05
2.872e-05
2.961e-05
3.044e-05
8.3e-06
1.112e-05
1.144e-05
1.158e-05
1.174e-05
1.194e-05
1.218e-05
1.247e-05
1.28e-05
1.317e-05
1.359e-05
1.406e-05
1.456e-05
1.512e-05
1.572e-05
1.636e-05
1.705e-05
1.778e-05
1.856e-05
1.937e-05
2.022e-05
2.11e-05
2.201e-05
2.295e-05
2.39e-05
2.486e-05
2.582e-05
2.678e-05
2.771e-05
2.862e-05
2.95e-05
3.032e-05
8.296e-06
1.111e-05
1.143e-05
1.157e-05
1.173e-05
1.193e-05
1.218e-05
1.246e-05
1.279e-05
1.316e-05
1.358e-05
1.404e-05
1.455e-05
1.51e-05
1.569e-05
1.634e-05
1.702e-05
1.775e-05
1.851e-05
1.932e-05
2.016e-05
2.104e-05
2.194e-05
2.287e-05
2.381e-05
2.476e-05
2.571e-05
2.665e-05
2.758e-05
2.848e-05
2.934e-05
3.016e-05
8.572e-06
1.148e-05
1.18e-05
1.194e-05
1.21e-05
1.229e-05
1.252e-05
1.28e-05
1.311e-05
1.347e-05
1.387e-05
1.431e-05
1.48e-05
1.532e-05
1.589e-05
1.65e-05
1.715e-05
1.784e-05
1.857e-05
1.933e-05
2.013e-05
2.095e-05
2.18e-05
2.267e-05
2.355e-05
2.444e-05
2.533e-05
2.621e-05
2.707e-05
2.791e-05
2.871e-05
2.946e-05
8.571e-06
1.148e-05
1.18e-05
1.194e-05
1.209e-05
1.229e-05
1.252e-05
1.279e-05
1.311e-05
1.347e-05
1.387e-05
1.431e-05
1.479e-05
1.532e-05
1.588e-05
1.649e-05
1.714e-05
1.783e-05
1.856e-05
1.932e-05
2.011e-05
2.094e-05
2.178e-05
2.265e-05
2.353e-05
2.441e-05
2.53e-05
2.617e-05
2.703e-05
2.787e-05
2.866e-05
2.941e-05
8.568e-06
1.148e-05
1.18e-05
1.194e-05
1.209e-05
1.228e-05
1.252e-05
1.279e-05
1.31e-05
1.346e-05
1.386e-05
1.43e-05
1.478e-05
1.53e-05
1.587e-05
1.648e-05
1.712e-05
1.781e-05
1.853e-05
1.929e-05
2.008e-05
2.09e-05
2.174e-05
2.26e-05
2.347e-05
2.436e-05
2.523e-05
2.61e-05
2.696e-05
2.778e-05
2.857e-05
2.932e-05
8.565e-06
1.147e-05
1.18e-05
1.193e-05
1.208e-05
1.228e-05
1.251e-05
1.278e-05
1.31e-05
1.345e-05
1.385e-05
1.428e-05
1.477e-05
1.529e-05
1.585e-05
1.645e-05
1.71e-05
1.778e-05
1.85e-05
1.925e-05
2.003e-05
2.085e-05
2.168e-05
2.253e-05
2.34e-05
2.427e-05
2.514e-05
2.6e-05
2.685e-05
2.767e-05
2.845e-05
2.918e-05
8.82e-06
1.181e-05
1.214e-05
1.227e-05
1.242e-05
1.261e-05
1.283e-05
1.309e-05
1.339e-05
1.373e-05
1.411e-05
1.453e-05
1.499e-05
1.549e-05
1.603e-05
1.661e-05
1.722e-05
1.787e-05
1.855e-05
1.926e-05
2e-05
2.077e-05
2.156e-05
2.236e-05
2.317e-05
2.399e-05
2.481e-05
2.561e-05
2.64e-05
2.716e-05
2.789e-05
2.857e-05
8.819e-06
1.181e-05
1.214e-05
1.227e-05
1.242e-05
1.26e-05
1.283e-05
1.309e-05
1.339e-05
1.373e-05
1.411e-05
1.453e-05
1.499e-05
1.549e-05
1.602e-05
1.66e-05
1.721e-05
1.786e-05
1.854e-05
1.925e-05
1.999e-05
2.075e-05
2.154e-05
2.234e-05
2.315e-05
2.397e-05
2.478e-05
2.558e-05
2.637e-05
2.713e-05
2.785e-05
2.854e-05
8.817e-06
1.181e-05
1.214e-05
1.227e-05
1.242e-05
1.26e-05
1.282e-05
1.308e-05
1.338e-05
1.372e-05
1.41e-05
1.452e-05
1.498e-05
1.548e-05
1.601e-05
1.658e-05
1.719e-05
1.784e-05
1.852e-05
1.923e-05
1.996e-05
2.072e-05
2.151e-05
2.23e-05
2.311e-05
2.392e-05
2.473e-05
2.553e-05
2.631e-05
2.706e-05
2.778e-05
2.846e-05
8.814e-06
1.18e-05
1.213e-05
1.226e-05
1.241e-05
1.259e-05
1.282e-05
1.308e-05
1.338e-05
1.372e-05
1.409e-05
1.451e-05
1.497e-05
1.546e-05
1.599e-05
1.656e-05
1.717e-05
1.781e-05
1.849e-05
1.919e-05
1.992e-05
2.068e-05
2.146e-05
2.225e-05
2.305e-05
2.385e-05
2.465e-05
2.544e-05
2.622e-05
2.696e-05
2.768e-05
2.835e-05
9.048e-06
1.212e-05
1.245e-05
1.258e-05
1.272e-05
1.29e-05
1.311e-05
1.336e-05
1.365e-05
1.397e-05
1.434e-05
1.474e-05
1.517e-05
1.565e-05
1.616e-05
1.67e-05
1.728e-05
1.789e-05
1.853e-05
1.92e-05
1.99e-05
2.061e-05
2.134e-05
2.209e-05
2.285e-05
2.36e-05
2.436e-05
2.51e-05
2.582e-05
2.652e-05
2.719e-05
2.782e-05
9.047e-06
1.211e-05
1.245e-05
1.258e-05
1.272e-05
1.289e-05
1.311e-05
1.336e-05
1.365e-05
1.397e-05
1.433e-05
1.473e-05
1.517e-05
1.564e-05
1.615e-05
1.67e-05
1.727e-05
1.788e-05
1.852e-05
1.919e-05
1.988e-05
2.06e-05
2.133e-05
2.207e-05
2.283e-05
2.358e-05
2.433e-05
2.507e-05
2.58e-05
2.649e-05
2.716e-05
2.778e-05
9.045e-06
1.211e-05
1.244e-05
1.257e-05
1.271e-05
1.289e-05
1.31e-05
1.335e-05
1.364e-05
1.397e-05
1.433e-05
1.473e-05
1.516e-05
1.563e-05
1.614e-05
1.668e-05
1.726e-05
1.787e-05
1.851e-05
1.917e-05
1.986e-05
2.057e-05
2.13e-05
2.204e-05
2.279e-05
2.354e-05
2.429e-05
2.503e-05
2.575e-05
2.644e-05
2.71e-05
2.772e-05
9.043e-06
1.211e-05
1.244e-05
1.257e-05
1.271e-05
1.289e-05
1.31e-05
1.335e-05
1.363e-05
1.396e-05
1.432e-05
1.472e-05
1.515e-05
1.562e-05
1.613e-05
1.667e-05
1.724e-05
1.784e-05
1.848e-05
1.914e-05
1.983e-05
2.054e-05
2.126e-05
2.2e-05
2.274e-05
2.349e-05
2.423e-05
2.496e-05
2.567e-05
2.636e-05
2.702e-05
2.763e-05
9.256e-06
1.239e-05
1.273e-05
1.285e-05
1.299e-05
1.316e-05
1.337e-05
1.361e-05
1.388e-05
1.419e-05
1.454e-05
1.492e-05
1.534e-05
1.579e-05
1.627e-05
1.679e-05
1.734e-05
1.791e-05
1.852e-05
1.915e-05
1.98e-05
2.048e-05
2.116e-05
2.186e-05
2.256e-05
2.327e-05
2.397e-05
2.466e-05
2.533e-05
2.597e-05
2.659e-05
2.717e-05
9.255e-06
1.239e-05
1.273e-05
1.285e-05
1.299e-05
1.316e-05
1.336e-05
1.36e-05
1.388e-05
1.419e-05
1.454e-05
1.492e-05
1.533e-05
1.578e-05
1.627e-05
1.678e-05
1.733e-05
1.791e-05
1.851e-05
1.914e-05
1.979e-05
2.046e-05
2.115e-05
2.185e-05
2.255e-05
2.325e-05
2.395e-05
2.464e-05
2.531e-05
2.595e-05
2.656e-05
2.714e-05
9.253e-06
1.239e-05
1.273e-05
1.285e-05
1.299e-05
1.316e-05
1.336e-05
1.36e-05
1.387e-05
1.419e-05
1.453e-05
1.491e-05
1.533e-05
1.578e-05
1.626e-05
1.677e-05
1.732e-05
1.79e-05
1.85e-05
1.913e-05
1.977e-05
2.044e-05
2.113e-05
2.182e-05
2.252e-05
2.322e-05
2.391e-05
2.46e-05
2.526e-05
2.591e-05
2.652e-05
2.709e-05
9.251e-06
1.239e-05
1.272e-05
1.285e-05
1.298e-05
1.315e-05
1.336e-05
1.359e-05
1.387e-05
1.418e-05
1.452e-05
1.49e-05
1.532e-05
1.577e-05
1.625e-05
1.676e-05
1.73e-05
1.788e-05
1.848e-05
1.91e-05
1.975e-05
2.041e-05
2.109e-05
2.178e-05
2.248e-05
2.317e-05
2.386e-05
2.454e-05
2.52e-05
2.584e-05
2.645e-05
2.702e-05
9.442e-06
1.264e-05
1.298e-05
1.31e-05
1.323e-05
1.34e-05
1.359e-05
1.383e-05
1.409e-05
1.439e-05
1.472e-05
1.509e-05
1.548e-05
1.591e-05
1.638e-05
1.687e-05
1.739e-05
1.794e-05
1.851e-05
1.911e-05
1.973e-05
2.036e-05
2.101e-05
2.166e-05
2.232e-05
2.298e-05
2.364e-05
2.428e-05
2.49e-05
2.551e-05
2.608e-05
2.661e-05
9.441e-06
1.264e-05
1.298e-05
1.31e-05
1.323e-05
1.34e-05
1.359e-05
1.382e-05
1.409e-05
1.439e-05
1.472e-05
1.508e-05
1.548e-05
1.591e-05
1.637e-05
1.686e-05
1.739e-05
1.793e-05
1.851e-05
1.91e-05
1.972e-05
2.035e-05
2.1e-05
2.165e-05
2.231e-05
2.297e-05
2.362e-05
2.426e-05
2.489e-05
2.549e-05
2.606e-05
2.659e-05
9.44e-06
1.264e-05
1.298e-05
1.31e-05
1.323e-05
1.339e-05
1.359e-05
1.382e-05
1.408e-05
1.438e-05
1.471e-05
1.508e-05
1.548e-05
1.59e-05
1.637e-05
1.686e-05
1.738e-05
1.792e-05
1.849e-05
1.909e-05
1.97e-05
2.033e-05
2.098e-05
2.163e-05
2.229e-05
2.294e-05
2.359e-05
2.423e-05
2.485e-05
2.545e-05
2.602e-05
2.655e-05
9.437e-06
1.263e-05
1.297e-05
1.309e-05
1.323e-05
1.339e-05
1.359e-05
1.382e-05
1.408e-05
1.438e-05
1.471e-05
1.507e-05
1.547e-05
1.589e-05
1.635e-05
1.684e-05
1.736e-05
1.791e-05
1.848e-05
1.907e-05
1.968e-05
2.031e-05
2.095e-05
2.16e-05
2.225e-05
2.29e-05
2.355e-05
2.419e-05
2.48e-05
2.54e-05
2.596e-05
2.649e-05
9.608e-06
1.286e-05
1.32e-05
1.332e-05
1.345e-05
1.361e-05
1.38e-05
1.402e-05
1.428e-05
1.456e-05
1.488e-05
1.523e-05
1.561e-05
1.603e-05
1.647e-05
1.694e-05
1.744e-05
1.796e-05
1.851e-05
1.908e-05
1.966e-05
2.026e-05
2.087e-05
2.149e-05
2.212e-05
2.274e-05
2.336e-05
2.396e-05
2.455e-05
2.511e-05
2.565e-05
2.615e-05
9.607e-06
1.286e-05
1.32e-05
1.332e-05
1.345e-05
1.361e-05
1.38e-05
1.402e-05
1.427e-05
1.456e-05
1.488e-05
1.523e-05
1.561e-05
1.602e-05
1.647e-05
1.694e-05
1.743e-05
1.796e-05
1.85e-05
1.907e-05
1.965e-05
2.025e-05
2.087e-05
2.148e-05
2.211e-05
2.273e-05
2.334e-05
2.395e-05
2.453e-05
2.51e-05
2.563e-05
2.613e-05
9.606e-06
1.286e-05
1.32e-05
1.332e-05
1.345e-05
1.36e-05
1.379e-05
1.402e-05
1.427e-05
1.456e-05
1.488e-05
1.523e-05
1.561e-05
1.602e-05
1.646e-05
1.693e-05
1.743e-05
1.795e-05
1.849e-05
1.906e-05
1.964e-05
2.024e-05
2.085e-05
2.147e-05
2.209e-05
2.271e-05
2.332e-05
2.392e-05
2.45e-05
2.507e-05
2.56e-05
2.61e-05
9.603e-06
1.286e-05
1.32e-05
1.332e-05
1.344e-05
1.36e-05
1.379e-05
1.401e-05
1.427e-05
1.455e-05
1.487e-05
1.522e-05
1.56e-05
1.601e-05
1.645e-05
1.692e-05
1.741e-05
1.793e-05
1.848e-05
1.904e-05
1.962e-05
2.022e-05
2.082e-05
2.144e-05
2.206e-05
2.267e-05
2.328e-05
2.388e-05
2.446e-05
2.502e-05
2.555e-05
2.605e-05
9.752e-06
1.305e-05
1.34e-05
1.352e-05
1.364e-05
1.379e-05
1.398e-05
1.419e-05
1.444e-05
1.471e-05
1.502e-05
1.536e-05
1.573e-05
1.613e-05
1.655e-05
1.7e-05
1.748e-05
1.798e-05
1.85e-05
1.905e-05
1.961e-05
2.018e-05
2.076e-05
2.135e-05
2.194e-05
2.254e-05
2.312e-05
2.369e-05
2.425e-05
2.478e-05
2.528e-05
2.576e-05
9.752e-06
1.305e-05
1.34e-05
1.351e-05
1.364e-05
1.379e-05
1.397e-05
1.419e-05
1.443e-05
1.471e-05
1.502e-05
1.536e-05
1.573e-05
1.612e-05
1.655e-05
1.7e-05
1.748e-05
1.798e-05
1.85e-05
1.904e-05
1.96e-05
2.017e-05
2.076e-05
2.134e-05
2.194e-05
2.253e-05
2.311e-05
2.368e-05
2.423e-05
2.477e-05
2.527e-05
2.574e-05
9.75e-06
1.305e-05
1.34e-05
1.351e-05
1.364e-05
1.379e-05
1.397e-05
1.419e-05
1.443e-05
1.471e-05
1.502e-05
1.535e-05
1.572e-05
1.612e-05
1.654e-05
1.699e-05
1.747e-05
1.797e-05
1.849e-05
1.903e-05
1.959e-05
2.016e-05
2.074e-05
2.133e-05
2.192e-05
2.251e-05
2.309e-05
2.366e-05
2.421e-05
2.474e-05
2.524e-05
2.572e-05
9.748e-06
1.305e-05
1.339e-05
1.351e-05
1.363e-05
1.378e-05
1.397e-05
1.418e-05
1.443e-05
1.47e-05
1.501e-05
1.535e-05
1.572e-05
1.611e-05
1.653e-05
1.698e-05
1.746e-05
1.796e-05
1.848e-05
1.902e-05
1.957e-05
2.014e-05
2.072e-05
2.131e-05
2.19e-05
2.248e-05
2.306e-05
2.363e-05
2.418e-05
2.471e-05
2.521e-05
2.568e-05
9.876e-06
1.322e-05
1.357e-05
1.368e-05
1.38e-05
1.395e-05
1.413e-05
1.434e-05
1.457e-05
1.484e-05
1.514e-05
1.547e-05
1.583e-05
1.621e-05
1.662e-05
1.706e-05
1.752e-05
1.8e-05
1.85e-05
1.903e-05
1.956e-05
2.011e-05
2.067e-05
2.124e-05
2.18e-05
2.237e-05
2.292e-05
2.347e-05
2.4e-05
2.45e-05
2.499e-05
2.544e-05
9.876e-06
1.322e-05
1.357e-05
1.368e-05
1.38e-05
1.395e-05
1.413e-05
1.433e-05
1.457e-05
1.484e-05
1.514e-05
1.547e-05
1.582e-05
1.621e-05
1.662e-05
1.705e-05
1.751e-05
1.8e-05
1.85e-05
1.902e-05
1.956e-05
2.011e-05
2.066e-05
2.123e-05
2.179e-05
2.236e-05
2.291e-05
2.346e-05
2.399e-05
2.449e-05
2.497e-05
2.542e-05
9.874e-06
1.322e-05
1.356e-05
1.368e-05
1.38e-05
1.395e-05
1.412e-05
1.433e-05
1.457e-05
1.484e-05
1.514e-05
1.546e-05
1.582e-05
1.62e-05
1.661e-05
1.705e-05
1.751e-05
1.799e-05
1.849e-05
1.901e-05
1.955e-05
2.01e-05
2.065e-05
2.122e-05
2.178e-05
2.234e-05
2.29e-05
2.344e-05
2.397e-05
2.447e-05
2.495e-05
2.54e-05
9.872e-06
1.321e-05
1.356e-05
1.367e-05
1.379e-05
1.394e-05
1.412e-05
1.433e-05
1.457e-05
1.483e-05
1.513e-05
1.546e-05
1.581e-05
1.62e-05
1.661e-05
1.704e-05
1.75e-05
1.798e-05
1.848e-05
1.9e-05
1.953e-05
2.008e-05
2.064e-05
2.12e-05
2.176e-05
2.232e-05
2.287e-05
2.342e-05
2.394e-05
2.444e-05
2.492e-05
2.537e-05
9.979e-06
1.336e-05
1.371e-05
1.382e-05
1.393e-05
1.408e-05
1.425e-05
1.446e-05
1.469e-05
1.495e-05
1.524e-05
1.556e-05
1.591e-05
1.628e-05
1.668e-05
1.71e-05
1.755e-05
1.802e-05
1.85e-05
1.901e-05
1.953e-05
2.006e-05
2.06e-05
2.114e-05
2.169e-05
2.223e-05
2.277e-05
2.329e-05
2.38e-05
2.428e-05
2.475e-05
2.518e-05
9.978e-06
1.336e-05
1.37e-05
1.382e-05
1.393e-05
1.408e-05
1.425e-05
1.445e-05
1.469e-05
1.495e-05
1.524e-05
1.556e-05
1.59e-05
1.628e-05
1.668e-05
1.71e-05
1.755e-05
1.801e-05
1.85e-05
1.9e-05
1.952e-05
2.005e-05
2.059e-05
2.114e-05
2.168e-05
2.222e-05
2.276e-05
2.328e-05
2.379e-05
2.427e-05
2.474e-05
2.517e-05
9.977e-06
1.335e-05
1.37e-05
1.381e-05
1.393e-05
1.408e-05
1.425e-05
1.445e-05
1.468e-05
1.495e-05
1.524e-05
1.555e-05
1.59e-05
1.627e-05
1.667e-05
1.709e-05
1.754e-05
1.801e-05
1.849e-05
1.9e-05
1.951e-05
2.004e-05
2.058e-05
2.112e-05
2.167e-05
2.221e-05
2.274e-05
2.327e-05
2.377e-05
2.426e-05
2.472e-05
2.515e-05
9.975e-06
1.335e-05
1.37e-05
1.381e-05
1.393e-05
1.407e-05
1.425e-05
1.445e-05
1.468e-05
1.494e-05
1.523e-05
1.555e-05
1.59e-05
1.627e-05
1.667e-05
1.709e-05
1.753e-05
1.8e-05
1.848e-05
1.899e-05
1.95e-05
2.003e-05
2.057e-05
2.111e-05
2.165e-05
2.219e-05
2.272e-05
2.324e-05
2.375e-05
2.423e-05
2.469e-05
2.512e-05
1.006e-05
1.347e-05
1.382e-05
1.393e-05
1.404e-05
1.418e-05
1.435e-05
1.455e-05
1.478e-05
1.504e-05
1.532e-05
1.563e-05
1.597e-05
1.633e-05
1.672e-05
1.714e-05
1.757e-05
1.803e-05
1.85e-05
1.899e-05
1.95e-05
2.002e-05
2.054e-05
2.107e-05
2.16e-05
2.212e-05
2.264e-05
2.315e-05
2.364e-05
2.411e-05
2.456e-05
2.497e-05
1.006e-05
1.346e-05
1.381e-05
1.392e-05
1.404e-05
1.418e-05
1.435e-05
1.455e-05
1.478e-05
1.503e-05
1.532e-05
1.563e-05
1.597e-05
1.633e-05
1.672e-05
1.714e-05
1.757e-05
1.803e-05
1.85e-05
1.899e-05
1.95e-05
2.001e-05
2.053e-05
2.106e-05
2.159e-05
2.212e-05
2.264e-05
2.314e-05
2.363e-05
2.41e-05
2.455e-05
2.497e-05
1.006e-05
1.346e-05
1.381e-05
1.392e-05
1.404e-05
1.418e-05
1.435e-05
1.455e-05
1.478e-05
1.503e-05
1.532e-05
1.563e-05
1.597e-05
1.633e-05
1.672e-05
1.713e-05
1.757e-05
1.802e-05
1.849e-05
1.898e-05
1.949e-05
2e-05
2.053e-05
2.105e-05
2.158e-05
2.211e-05
2.262e-05
2.313e-05
2.362e-05
2.409e-05
2.453e-05
2.495e-05
1.006e-05
1.346e-05
1.381e-05
1.392e-05
1.404e-05
1.418e-05
1.435e-05
1.455e-05
1.477e-05
1.503e-05
1.531e-05
1.562e-05
1.596e-05
1.632e-05
1.671e-05
1.712e-05
1.756e-05
1.801e-05
1.849e-05
1.898e-05
1.948e-05
1.999e-05
2.051e-05
2.104e-05
2.157e-05
2.209e-05
2.261e-05
2.311e-05
2.36e-05
2.407e-05
2.451e-05
2.492e-05
1.012e-05
1.355e-05
1.39e-05
1.401e-05
1.412e-05
1.426e-05
1.443e-05
1.462e-05
1.485e-05
1.51e-05
1.538e-05
1.569e-05
1.602e-05
1.638e-05
1.676e-05
1.716e-05
1.759e-05
1.804e-05
1.85e-05
1.899e-05
1.948e-05
1.998e-05
2.05e-05
2.101e-05
2.153e-05
2.205e-05
2.255e-05
2.305e-05
2.353e-05
2.399e-05
2.442e-05
2.483e-05
1.012e-05
1.355e-05
1.39e-05
1.401e-05
1.412e-05
1.426e-05
1.443e-05
1.462e-05
1.485e-05
1.51e-05
1.538e-05
1.568e-05
1.602e-05
1.637e-05
1.676e-05
1.716e-05
1.759e-05
1.804e-05
1.85e-05
1.898e-05
1.948e-05
1.998e-05
2.049e-05
2.101e-05
2.153e-05
2.204e-05
2.255e-05
2.304e-05
2.352e-05
2.398e-05
2.441e-05
2.482e-05
1.012e-05
1.354e-05
1.39e-05
1.4e-05
1.412e-05
1.426e-05
1.442e-05
1.462e-05
1.484e-05
1.51e-05
1.538e-05
1.568e-05
1.601e-05
1.637e-05
1.675e-05
1.716e-05
1.758e-05
1.803e-05
1.85e-05
1.898e-05
1.947e-05
1.997e-05
2.049e-05
2.1e-05
2.152e-05
2.203e-05
2.254e-05
2.303e-05
2.351e-05
2.397e-05
2.44e-05
2.481e-05
1.012e-05
1.354e-05
1.389e-05
1.4e-05
1.412e-05
1.425e-05
1.442e-05
1.462e-05
1.484e-05
1.509e-05
1.537e-05
1.568e-05
1.601e-05
1.637e-05
1.675e-05
1.715e-05
1.758e-05
1.802e-05
1.849e-05
1.897e-05
1.946e-05
1.996e-05
2.047e-05
2.099e-05
2.15e-05
2.202e-05
2.252e-05
2.301e-05
2.349e-05
2.395e-05
2.438e-05
2.478e-05
1.016e-05
1.36e-05
1.395e-05
1.406e-05
1.417e-05
1.431e-05
1.448e-05
1.467e-05
1.489e-05
1.514e-05
1.542e-05
1.572e-05
1.605e-05
1.64e-05
1.678e-05
1.718e-05
1.76e-05
1.805e-05
1.85e-05
1.898e-05
1.947e-05
1.996e-05
2.047e-05
2.098e-05
2.149e-05
2.2e-05
2.249e-05
2.298e-05
2.345e-05
2.391e-05
2.433e-05
2.473e-05
1.016e-05
1.36e-05
1.395e-05
1.406e-05
1.417e-05
1.431e-05
1.448e-05
1.467e-05
1.489e-05
1.514e-05
1.542e-05
1.572e-05
1.605e-05
1.64e-05
1.678e-05
1.718e-05
1.76e-05
1.804e-05
1.85e-05
1.898e-05
1.946e-05
1.996e-05
2.047e-05
2.098e-05
2.148e-05
2.199e-05
2.249e-05
2.298e-05
2.345e-05
2.39e-05
2.433e-05
2.473e-05
1.016e-05
1.36e-05
1.395e-05
1.406e-05
1.417e-05
1.431e-05
1.447e-05
1.467e-05
1.489e-05
1.514e-05
1.541e-05
1.572e-05
1.605e-05
1.64e-05
1.678e-05
1.718e-05
1.76e-05
1.804e-05
1.85e-05
1.897e-05
1.946e-05
1.995e-05
2.046e-05
2.097e-05
2.148e-05
2.198e-05
2.248e-05
2.297e-05
2.344e-05
2.389e-05
2.431e-05
2.471e-05
1.016e-05
1.36e-05
1.395e-05
1.406e-05
1.417e-05
1.431e-05
1.447e-05
1.466e-05
1.489e-05
1.513e-05
1.541e-05
1.571e-05
1.604e-05
1.639e-05
1.677e-05
1.717e-05
1.759e-05
1.803e-05
1.849e-05
1.896e-05
1.945e-05
1.995e-05
2.045e-05
2.096e-05
2.146e-05
2.197e-05
2.246e-05
2.295e-05
2.342e-05
2.387e-05
2.429e-05
2.469e-05
1.018e-05
1.363e-05
1.398e-05
1.409e-05
1.42e-05
1.434e-05
1.45e-05
1.469e-05
1.491e-05
1.516e-05
1.544e-05
1.574e-05
1.606e-05
1.642e-05
1.679e-05
1.719e-05
1.761e-05
1.805e-05
1.85e-05
1.898e-05
1.946e-05
1.996e-05
2.046e-05
2.096e-05
2.147e-05
2.197e-05
2.247e-05
2.295e-05
2.342e-05
2.387e-05
2.429e-05
2.469e-05
1.018e-05
1.363e-05
1.398e-05
1.409e-05
1.42e-05
1.433e-05
1.45e-05
1.469e-05
1.491e-05
1.516e-05
1.544e-05
1.574e-05
1.606e-05
1.641e-05
1.679e-05
1.719e-05
1.761e-05
1.805e-05
1.85e-05
1.897e-05
1.946e-05
1.995e-05
2.045e-05
2.096e-05
2.146e-05
2.197e-05
2.246e-05
2.295e-05
2.341e-05
2.386e-05
2.429e-05
2.468e-05
1.018e-05
1.362e-05
1.398e-05
1.408e-05
1.42e-05
1.433e-05
1.45e-05
1.469e-05
1.491e-05
1.516e-05
1.543e-05
1.573e-05
1.606e-05
1.641e-05
1.679e-05
1.718e-05
1.76e-05
1.804e-05
1.85e-05
1.897e-05
1.945e-05
1.995e-05
2.045e-05
2.095e-05
2.146e-05
2.196e-05
2.245e-05
2.294e-05
2.34e-05
2.385e-05
2.427e-05
2.467e-05
1.018e-05
1.362e-05
1.397e-05
1.408e-05
1.419e-05
1.433e-05
1.449e-05
1.469e-05
1.491e-05
1.515e-05
1.543e-05
1.573e-05
1.606e-05
1.641e-05
1.678e-05
1.718e-05
1.76e-05
1.804e-05
1.849e-05
1.896e-05
1.944e-05
1.994e-05
2.044e-05
2.094e-05
2.144e-05
2.195e-05
2.244e-05
2.292e-05
2.339e-05
2.383e-05
2.426e-05
2.465e-05
3.151e-05
2.969e-05
3.066e-05
2.784e-05
2.881e-05
2.972e-05
2.501e-05
2.594e-05
2.682e-05
2.765e-05
1.78e-05
1.85e-05
1.918e-05
1.983e-05
2.043e-05
4.306e-06
4.489e-06
4.666e-06
4.836e-06
4.999e-06
5.15e-06
6.289e-06
8.437e-06
8.716e-06
8.881e-06
9.086e-06
9.344e-06
9.659e-06
1.003e-05
1.046e-05
1.096e-05
1.152e-05
1.215e-05
1.285e-05
1.362e-05
1.447e-05
1.54e-05
1.641e-05
1.751e-05
1.869e-05
1.996e-05
2.132e-05
2.276e-05
2.429e-05
2.589e-05
2.756e-05
2.929e-05
3.106e-05
3.286e-05
3.466e-05
3.644e-05
3.819e-05
3.986e-05
6.283e-06
8.428e-06
8.706e-06
8.87e-06
9.073e-06
9.329e-06
9.641e-06
1.001e-05
1.044e-05
1.093e-05
1.148e-05
1.21e-05
1.279e-05
1.355e-05
1.439e-05
1.53e-05
1.629e-05
1.737e-05
1.852e-05
1.976e-05
2.109e-05
2.249e-05
2.397e-05
2.552e-05
2.713e-05
2.88e-05
3.051e-05
3.223e-05
3.396e-05
3.567e-05
3.734e-05
3.894e-05
6.276e-06
8.418e-06
8.695e-06
8.858e-06
9.059e-06
9.313e-06
9.621e-06
9.986e-06
1.041e-05
1.089e-05
1.144e-05
1.205e-05
1.273e-05
1.348e-05
1.43e-05
1.519e-05
1.616e-05
1.721e-05
1.834e-05
1.954e-05
2.083e-05
2.218e-05
2.361e-05
2.511e-05
2.666e-05
2.826e-05
2.989e-05
3.154e-05
3.319e-05
3.482e-05
3.64e-05
3.791e-05
6.268e-06
8.407e-06
8.683e-06
8.844e-06
9.043e-06
9.294e-06
9.599e-06
9.96e-06
1.038e-05
1.085e-05
1.139e-05
1.199e-05
1.266e-05
1.339e-05
1.42e-05
1.507e-05
1.602e-05
1.704e-05
1.813e-05
1.93e-05
2.054e-05
2.186e-05
2.323e-05
2.467e-05
2.615e-05
2.768e-05
2.923e-05
3.08e-05
3.236e-05
3.39e-05
3.54e-05
3.683e-05
6.26e-06
8.396e-06
8.67e-06
8.83e-06
9.027e-06
9.275e-06
9.576e-06
9.932e-06
1.034e-05
1.081e-05
1.134e-05
1.193e-05
1.259e-05
1.331e-05
1.409e-05
1.495e-05
1.587e-05
1.686e-05
1.792e-05
1.906e-05
2.025e-05
2.151e-05
2.284e-05
2.421e-05
2.563e-05
2.708e-05
2.856e-05
3.004e-05
3.152e-05
3.297e-05
3.437e-05
3.571e-05
6.251e-06
8.384e-06
8.657e-06
8.815e-06
9.01e-06
9.255e-06
9.552e-06
9.904e-06
1.031e-05
1.077e-05
1.129e-05
1.187e-05
1.252e-05
1.322e-05
1.399e-05
1.482e-05
1.572e-05
1.668e-05
1.771e-05
1.881e-05
1.996e-05
2.117e-05
2.244e-05
2.375e-05
2.51e-05
2.648e-05
2.788e-05
2.928e-05
3.067e-05
3.203e-05
3.335e-05
3.46e-05
6.242e-06
8.371e-06
8.643e-06
8.8e-06
8.993e-06
9.235e-06
9.529e-06
9.876e-06
1.028e-05
1.073e-05
1.124e-05
1.182e-05
1.244e-05
1.313e-05
1.389e-05
1.47e-05
1.557e-05
1.651e-05
1.751e-05
1.856e-05
1.967e-05
2.084e-05
2.205e-05
2.33e-05
2.459e-05
2.59e-05
2.722e-05
2.854e-05
2.985e-05
3.113e-05
3.236e-05
3.353e-05
6.234e-06
8.359e-06
8.63e-06
8.785e-06
8.976e-06
9.216e-06
9.506e-06
9.848e-06
1.024e-05
1.069e-05
1.12e-05
1.176e-05
1.238e-05
1.305e-05
1.379e-05
1.458e-05
1.543e-05
1.634e-05
1.731e-05
1.833e-05
1.94e-05
2.052e-05
2.169e-05
2.288e-05
2.411e-05
2.535e-05
2.661e-05
2.785e-05
2.908e-05
3.028e-05
3.144e-05
3.253e-05
6.226e-06
8.347e-06
8.617e-06
8.771e-06
8.96e-06
9.197e-06
9.484e-06
9.823e-06
1.021e-05
1.066e-05
1.115e-05
1.171e-05
1.231e-05
1.298e-05
1.37e-05
1.447e-05
1.53e-05
1.619e-05
1.713e-05
1.812e-05
1.915e-05
2.023e-05
2.135e-05
2.25e-05
2.367e-05
2.486e-05
2.604e-05
2.723e-05
2.839e-05
2.951e-05
3.06e-05
3.162e-05
6.217e-06
8.334e-06
8.602e-06
8.755e-06
8.942e-06
9.177e-06
9.462e-06
9.796e-06
1.018e-05
1.062e-05
1.111e-05
1.166e-05
1.225e-05
1.291e-05
1.361e-05
1.437e-05
1.518e-05
1.605e-05
1.696e-05
1.793e-05
1.893e-05
1.998e-05
2.105e-05
2.216e-05
2.328e-05
2.441e-05
2.555e-05
2.667e-05
2.777e-05
2.884e-05
2.986e-05
3.082e-05
6.2e-06
8.31e-06
8.576e-06
8.728e-06
8.913e-06
9.146e-06
9.427e-06
9.758e-06
1.014e-05
1.057e-05
1.106e-05
1.159e-05
1.218e-05
1.282e-05
1.352e-05
1.426e-05
1.506e-05
1.591e-05
1.68e-05
1.774e-05
1.871e-05
1.973e-05
2.077e-05
2.184e-05
2.292e-05
2.401e-05
2.509e-05
2.616e-05
2.721e-05
2.823e-05
2.92e-05
3.011e-05
6.141e-06
8.216e-06
8.477e-06
8.626e-06
8.809e-06
9.037e-06
9.314e-06
9.64e-06
1.001e-05
1.044e-05
1.091e-05
1.144e-05
1.202e-05
1.265e-05
1.332e-05
1.405e-05
1.483e-05
1.565e-05
1.652e-05
1.743e-05
1.838e-05
1.936e-05
2.036e-05
2.139e-05
2.243e-05
2.347e-05
2.451e-05
2.554e-05
2.654e-05
2.751e-05
2.843e-05
2.929e-05