/*--------------------------------*- C++ -*----------------------------------*\
  =========                 |
  \\      /  F ield         | OpenFOAM: The Open Source CFD Toolbox
   \\    /   O peration     | Website:  https://openfoam.org
    \\  /    A nd           | Version:  6
     \\/     M anipulation  |
\*---------------------------------------------------------------------------*/
FoamFile
{
    version     2.0;
    format      ascii;
    class       volScalarField;
    location    "5";
    object      T;
}
// * * * * * * * * * * * * * * * * * * * * * * * * * * * * * * * * * * * * * //

dimensions      [0 0 0 1 0 0 0];

internalField   nonuniform List<scalar> 
16128
(
4.664
4.654
4.637
4.614
4.585
4.549
4.508
4.462
4.41
4.353
4.292
4.227
4.158
4.086
4.012
3.935
3.857
3.777
3.697
3.617
3.537
3.458
3.381
3.305
3.231
3.161
3.093
3.029
2.968
2.912
2.86
2.812
4.664
4.654
4.637
4.614
4.585
4.55
4.509
4.463
4.411
4.355
4.294
4.229
4.16
4.089
4.014
3.938
3.86
3.781
3.701
3.621
3.541
3.463
3.385
3.31
3.237
3.166
3.099
3.035
2.974
2.918
2.866
2.819
4.664
4.654
4.637
4.615
4.586
4.551
4.51
4.464
4.413
4.357
4.297
4.232
4.164
4.093
4.019
3.944
3.866
3.787
3.708
3.629
3.55
3.472
3.395
3.32
3.248
3.178
3.111
3.047
2.987
2.931
2.88
2.833
4.664
4.654
4.638
4.615
4.587
4.552
4.512
4.466
4.416
4.36
4.301
4.237
4.17
4.1
4.027
3.952
3.875
3.798
3.719
3.641
3.563
3.486
3.41
3.336
3.264
3.195
3.128
3.065
3.006
2.951
2.9
2.853
4.608
4.598
4.581
4.557
4.527
4.49
4.448
4.399
4.346
4.287
4.224
4.157
4.086
4.012
3.935
3.856
3.775
3.694
3.611
3.529
3.448
3.367
3.288
3.211
3.136
3.064
2.995
2.93
2.869
2.812
2.759
2.711
4.608
4.598
4.581
4.557
4.527
4.491
4.448
4.4
4.347
4.289
4.226
4.159
4.088
4.014
3.938
3.859
3.779
3.697
3.615
3.534
3.452
3.372
3.293
3.216
3.142
3.07
3.002
2.937
2.876
2.819
2.766
2.718
4.608
4.598
4.581
4.558
4.528
4.492
4.45
4.402
4.349
4.291
4.229
4.162
4.092
4.019
3.943
3.865
3.785
3.704
3.623
3.542
3.461
3.381
3.303
3.227
3.153
3.082
3.014
2.949
2.889
2.832
2.78
2.733
4.608
4.598
4.582
4.558
4.529
4.493
4.452
4.404
4.352
4.295
4.233
4.168
4.098
4.026
3.951
3.874
3.795
3.715
3.635
3.554
3.475
3.396
3.318
3.243
3.17
3.099
3.032
2.968
2.908
2.852
2.801
2.754
4.553
4.543
4.525
4.501
4.469
4.432
4.388
4.338
4.282
4.222
4.157
4.087
4.014
3.937
3.858
3.777
3.694
3.61
3.526
3.442
3.358
3.276
3.195
3.116
3.04
2.967
2.897
2.831
2.769
2.712
2.658
2.61
4.553
4.543
4.526
4.501
4.47
4.432
4.389
4.339
4.284
4.223
4.158
4.089
4.016
3.94
3.861
3.78
3.698
3.614
3.53
3.446
3.363
3.281
3.2
3.122
3.046
2.973
2.904
2.838
2.776
2.719
2.666
2.617
4.553
4.543
4.526
4.502
4.471
4.433
4.39
4.341
4.286
4.226
4.162
4.093
4.02
3.945
3.867
3.786
3.704
3.622
3.538
3.455
3.372
3.291
3.211
3.133
3.058
2.985
2.916
2.851
2.79
2.732
2.68
2.632
4.554
4.544
4.526
4.502
4.472
4.435
4.392
4.343
4.289
4.23
4.166
4.099
4.027
3.952
3.875
3.796
3.715
3.633
3.55
3.468
3.386
3.306
3.227
3.15
3.075
3.004
2.935
2.871
2.81
2.753
2.701
2.654
4.499
4.489
4.471
4.446
4.413
4.374
4.329
4.277
4.22
4.157
4.09
4.018
3.942
3.863
3.782
3.698
3.613
3.527
3.44
3.354
3.268
3.184
3.102
3.022
2.944
2.87
2.799
2.732
2.669
2.611
2.557
2.508
4.5
4.489
4.471
4.446
4.414
4.375
4.33
4.278
4.221
4.159
4.092
4.02
3.945
3.866
3.785
3.701
3.617
3.531
3.445
3.359
3.273
3.189
3.107
3.027
2.95
2.876
2.805
2.739
2.676
2.618
2.564
2.515
4.5
4.49
4.472
4.447
4.415
4.376
4.331
4.28
4.224
4.162
4.095
4.024
3.949
3.871
3.791
3.708
3.624
3.539
3.453
3.368
3.283
3.2
3.118
3.039
2.962
2.889
2.819
2.752
2.69
2.632
2.579
2.53
4.5
4.49
4.472
4.448
4.416
4.378
4.334
4.283
4.227
4.166
4.1
4.03
3.956
3.879
3.8
3.718
3.635
3.55
3.466
3.381
3.298
3.215
3.135
3.056
2.98
2.908
2.838
2.773
2.711
2.654
2.601
2.553
4.447
4.436
4.418
4.392
4.358
4.318
4.271
4.217
4.158
4.093
4.024
3.949
3.871
3.79
3.706
3.62
3.532
3.443
3.355
3.266
3.179
3.092
3.008
2.926
2.848
2.772
2.7
2.632
2.568
2.509
2.455
2.405
4.447
4.437
4.418
4.392
4.359
4.319
4.272
4.219
4.159
4.095
4.025
3.952
3.874
3.793
3.709
3.623
3.536
3.448
3.359
3.271
3.184
3.098
3.014
2.932
2.854
2.778
2.707
2.639
2.575
2.517
2.462
2.413
4.448
4.437
4.419
4.393
4.36
4.32
4.274
4.221
4.162
4.098
4.029
3.956
3.879
3.798
3.715
3.63
3.543
3.456
3.368
3.281
3.194
3.109
3.025
2.945
2.866
2.792
2.72
2.653
2.59
2.531
2.478
2.429
4.448
4.438
4.419
4.394
4.361
4.322
4.276
4.224
4.166
4.103
4.035
3.962
3.886
3.806
3.724
3.64
3.555
3.468
3.381
3.295
3.209
3.125
3.042
2.962
2.885
2.811
2.741
2.674
2.611
2.553
2.5
2.452
4.396
4.385
4.366
4.339
4.304
4.263
4.214
4.159
4.097
4.03
3.958
3.881
3.801
3.717
3.63
3.541
3.451
3.36
3.269
3.178
3.089
3
2.914
2.831
2.751
2.674
2.6
2.532
2.467
2.407
2.352
2.302
4.396
4.385
4.366
4.339
4.305
4.263
4.215
4.16
4.099
4.032
3.96
3.884
3.803
3.72
3.633
3.545
3.455
3.364
3.274
3.183
3.094
3.006
2.92
2.837
2.757
2.68
2.608
2.539
2.474
2.415
2.36
2.31
4.396
4.386
4.367
4.34
4.306
4.265
4.217
4.162
4.101
4.035
3.964
3.888
3.808
3.725
3.64
3.552
3.463
3.373
3.283
3.193
3.105
3.017
2.932
2.85
2.77
2.694
2.622
2.553
2.489
2.43
2.376
2.326
4.397
4.386
4.368
4.341
4.308
4.267
4.219
4.165
4.105
4.04
3.97
3.895
3.816
3.734
3.65
3.563
3.475
3.386
3.297
3.208
3.12
3.034
2.95
2.868
2.79
2.714
2.643
2.575
2.512
2.453
2.399
2.35
4.346
4.335
4.315
4.287
4.251
4.208
4.158
4.1
4.037
3.968
3.893
3.814
3.73
3.644
3.554
3.463
3.37
3.277
3.183
3.09
2.998
2.908
2.82
2.735
2.653
2.575
2.501
2.431
2.365
2.305
2.249
2.199
4.346
4.335
4.315
4.288
4.252
4.209
4.159
4.102
4.038
3.969
3.895
3.816
3.733
3.647
3.558
3.467
3.374
3.281
3.188
3.095
3.004
2.914
2.827
2.742
2.66
2.582
2.508
2.438
2.373
2.313
2.257
2.207
4.346
4.335
4.316
4.288
4.253
4.211
4.161
4.104
4.041
3.973
3.899
3.821
3.739
3.653
3.565
3.474
3.383
3.29
3.198
3.106
3.015
2.926
2.839
2.755
2.674
2.596
2.522
2.453
2.388
2.328
2.273
2.223
4.347
4.336
4.317
4.29
4.255
4.213
4.164
4.108
4.046
3.978
3.905
3.828
3.747
3.662
3.575
3.486
3.395
3.304
3.212
3.121
3.031
2.943
2.857
2.774
2.694
2.617
2.544
2.475
2.411
2.352
2.297
2.248
4.297
4.285
4.265
4.236
4.199
4.155
4.102
4.043
3.977
3.906
3.829
3.747
3.661
3.571
3.479
3.385
3.29
3.193
3.097
3.002
2.908
2.816
2.726
2.639
2.556
2.476
2.401
2.329
2.263
2.202
2.146
2.095
4.297
4.286
4.265
4.237
4.2
4.156
4.104
4.045
3.979
3.908
3.831
3.749
3.664
3.575
3.483
3.389
3.294
3.198
3.103
3.007
2.914
2.822
2.732
2.646
2.563
2.483
2.408
2.337
2.271
2.21
2.154
2.103
4.298
4.286
4.266
4.238
4.201
4.157
4.106
4.047
3.982
3.911
3.835
3.754
3.669
3.581
3.49
3.397
3.303
3.208
3.113
3.018
2.925
2.834
2.745
2.659
2.577
2.498
2.423
2.353
2.287
2.226
2.171
2.12
4.298
4.287
4.267
4.239
4.203
4.16
4.109
4.051
3.987
3.917
3.842
3.762
3.678
3.591
3.501
3.409
3.316
3.222
3.128
3.035
2.942
2.852
2.764
2.679
2.598
2.519
2.445
2.376
2.311
2.25
2.195
2.145
4.249
4.237
4.216
4.187
4.148
4.102
4.048
3.987
3.919
3.845
3.765
3.68
3.591
3.499
3.404
3.307
3.209
3.11
3.012
2.914
2.817
2.723
2.631
2.543
2.458
2.377
2.3
2.228
2.161
2.099
2.042
1.991
4.249
4.238
4.217
4.187
4.149
4.103
4.049
3.988
3.921
3.847
3.767
3.683
3.595
3.503
3.408
3.311
3.214
3.115
3.017
2.92
2.824
2.73
2.638
2.55
2.465
2.384
2.308
2.236
2.169
2.107
2.051
1.999
4.25
4.238
4.218
4.188
4.151
4.105
4.052
3.991
3.924
3.851
3.772
3.688
3.601
3.509
3.416
3.32
3.223
3.125
3.028
2.931
2.836
2.742
2.652
2.564
2.48
2.399
2.323
2.252
2.185
2.124
2.068
2.017
4.251
4.239
4.219
4.19
4.153
4.108
4.055
3.995
3.929
3.856
3.779
3.696
3.61
3.52
3.427
3.332
3.236
3.14
3.043
2.948
2.853
2.761
2.671
2.585
2.501
2.422
2.346
2.276
2.21
2.149
2.093
2.042
4.202
4.19
4.169
4.138
4.099
4.051
3.995
3.931
3.861
3.784
3.702
3.614
3.523
3.428
3.33
3.23
3.129
3.027
2.926
2.826
2.727
2.631
2.537
2.446
2.36
2.277
2.2
2.126
2.058
1.996
1.938
1.887
4.202
4.191
4.169
4.139
4.099
4.052
3.996
3.933
3.863
3.786
3.704
3.617
3.526
3.431
3.334
3.234
3.134
3.032
2.932
2.832
2.733
2.637
2.544
2.454
2.367
2.285
2.208
2.135
2.067
2.004
1.947
1.895
4.203
4.191
4.17
4.14
4.101
4.054
3.998
3.936
3.866
3.791
3.709
3.623
3.532
3.438
3.342
3.243
3.143
3.043
2.943
2.843
2.746
2.65
2.558
2.468
2.382
2.301
2.224
2.151
2.084
2.021
1.965
1.913
4.204
4.193
4.172
4.142
4.103
4.057
4.002
3.94
3.872
3.797
3.716
3.631
3.542
3.449
3.353
3.256
3.157
3.058
2.959
2.861
2.764
2.67
2.578
2.49
2.405
2.324
2.247
2.176
2.109
2.047
1.991
1.94
4.156
4.144
4.122
4.09
4.05
4
3.942
3.877
3.804
3.725
3.639
3.549
3.454
3.356
3.255
3.153
3.049
2.944
2.84
2.737
2.636
2.538
2.442
2.35
2.262
2.178
2.099
2.025
1.956
1.893
1.835
1.783
4.157
4.145
4.123
4.091
4.051
4.001
3.944
3.878
3.806
3.727
3.642
3.552
3.458
3.36
3.26
3.157
3.054
2.95
2.846
2.744
2.643
2.545
2.449
2.357
2.27
2.186
2.107
2.033
1.965
1.901
1.844
1.792
4.158
4.146
4.124
4.093
4.052
4.003
3.946
3.882
3.81
3.731
3.647
3.558
3.464
3.368
3.268
3.166
3.063
2.96
2.858
2.756
2.656
2.558
2.464
2.372
2.285
2.202
2.124
2.05
1.982
1.919
1.862
1.81
4.159
4.147
4.125
4.094
4.055
4.006
3.95
3.886
3.815
3.738
3.655
3.567
3.474
3.379
3.28
3.18
3.078
2.976
2.875
2.774
2.675
2.579
2.485
2.395
2.308
2.226
2.148
2.075
2.008
1.945
1.888
1.837
4.112
4.1
4.077
4.044
4.002
3.951
3.891
3.823
3.748
3.666
3.578
3.484
3.387
3.285
3.181
3.076
2.969
2.862
2.755
2.649
2.546
2.445
2.347
2.254
2.164
2.079
1.998
1.923
1.854
1.79
1.731
1.679
4.112
4.1
4.077
4.045
4.003
3.952
3.892
3.825
3.75
3.668
3.58
3.487
3.39
3.289
3.186
3.08
2.974
2.867
2.761
2.656
2.553
2.452
2.355
2.261
2.172
2.087
2.007
1.932
1.862
1.799
1.74
1.688
4.113
4.101
4.079
4.046
4.005
3.954
3.895
3.828
3.754
3.673
3.586
3.494
3.397
3.297
3.195
3.09
2.984
2.878
2.773
2.669
2.566
2.466
2.37
2.277
2.188
2.103
2.024
1.949
1.88
1.817
1.759
1.707
4.115
4.103
4.08
4.048
4.007
3.957
3.899
3.833
3.76
3.68
3.594
3.503
3.408
3.309
3.207
3.104
3
2.895
2.791
2.688
2.586
2.488
2.392
2.3
2.212
2.128
2.049
1.975
1.907
1.844
1.786
1.734
4.069
4.056
4.033
3.999
3.955
3.902
3.84
3.77
3.692
3.608
3.517
3.42
3.32
3.215
3.108
2.999
2.889
2.779
2.67
2.562
2.456
2.353
2.253
2.157
2.066
1.979
1.898
1.822
1.752
1.687
1.628
1.575
4.069
4.057
4.033
4
3.956
3.904
3.842
3.772
3.695
3.61
3.519
3.424
3.323
3.219
3.113
3.004
2.895
2.785
2.676
2.568
2.463
2.36
2.261
2.165
2.074
1.988
1.907
1.831
1.761
1.696
1.638
1.585
4.07
4.058
4.035
4.001
3.958
3.906
3.845
3.776
3.699
3.615
3.525
3.43
3.331
3.227
3.122
3.014
2.905
2.796
2.688
2.581
2.477
2.375
2.276
2.181
2.091
2.005
1.924
1.849
1.779
1.715
1.656
1.604
4.072
4.059
4.036
4.004
3.961
3.909
3.849
3.781
3.705
3.622
3.534
3.44
3.341
3.24
3.135
3.029
2.921
2.814
2.707
2.601
2.497
2.396
2.299
2.205
2.115
2.03
1.95
1.875
1.806
1.742
1.684
1.632
4.027
4.014
3.99
3.955
3.91
3.855
3.791
3.718
3.638
3.55
3.456
3.357
3.253
3.145
3.035
2.923
2.81
2.697
2.585
2.474
2.366
2.26
2.159
2.061
1.968
1.88
1.798
1.721
1.65
1.585
1.526
1.473
4.027
4.014
3.99
3.956
3.911
3.856
3.793
3.72
3.64
3.553
3.459
3.36
3.257
3.15
3.04
2.928
2.816
2.703
2.591
2.481
2.373
2.268
2.167
2.069
1.977
1.889
1.807
1.73
1.659
1.594
1.535
1.482
4.028
4.016
3.992
3.957
3.913
3.859
3.796
3.724
3.645
3.558
3.465
3.367
3.265
3.158
3.049
2.939
2.827
2.715
2.604
2.495
2.387
2.283
2.182
2.086
1.994
1.906
1.825
1.748
1.678
1.613
1.554
1.502
4.03
4.017
3.994
3.96
3.916
3.863
3.8
3.73
3.651
3.566
3.474
3.377
3.276
3.171
3.063
2.954
2.843
2.733
2.623
2.515
2.409
2.306
2.206
2.11
2.019
1.933
1.851
1.776
1.705
1.641
1.583
1.53
3.986
3.973
3.948
3.912
3.865
3.809
3.743
3.668
3.584
3.494
3.397
3.294
3.187
3.076
2.963
2.847
2.731
2.615
2.5
2.387
2.276
2.168
2.065
1.965
1.871
1.782
1.698
1.621
1.549
1.483
1.424
1.371
3.987
3.973
3.948
3.913
3.866
3.81
3.744
3.67
3.587
3.497
3.4
3.298
3.191
3.081
2.968
2.853
2.737
2.621
2.507
2.394
2.283
2.176
2.073
1.974
1.88
1.791
1.707
1.63
1.558
1.493
1.434
1.381
3.988
3.975
3.95
3.915
3.869
3.813
3.748
3.674
3.591
3.502
3.406
3.305
3.199
3.09
2.978
2.864
2.749
2.634
2.52
2.408
2.298
2.192
2.089
1.991
1.897
1.809
1.726
1.649
1.577
1.512
1.453
1.4
3.989
3.976
3.952
3.917
3.872
3.817
3.752
3.679
3.598
3.51
3.416
3.316
3.211
3.103
2.992
2.88
2.766
2.653
2.54
2.429
2.321
2.215
2.114
2.016
1.923
1.835
1.753
1.676
1.606
1.541
1.482
1.43
3.946
3.933
3.907
3.87
3.822
3.764
3.695
3.618
3.532
3.438
3.338
3.233
3.122
3.008
2.891
2.772
2.653
2.534
2.416
2.3
2.187
2.077
1.971
1.87
1.774
1.684
1.599
1.521
1.449
1.383
1.324
1.271
3.947
3.933
3.908
3.871
3.823
3.765
3.697
3.62
3.534
3.441
3.342
3.236
3.126
3.013
2.896
2.778
2.659
2.54
2.423
2.307
2.194
2.085
1.98
1.879
1.783
1.693
1.609
1.531
1.459
1.393
1.334
1.281
3.948
3.935
3.91
3.873
3.826
3.768
3.701
3.624
3.539
3.447
3.348
3.244
3.135
3.022
2.906
2.789
2.671
2.554
2.437
2.322
2.21
2.101
1.996
1.896
1.801
1.711
1.628
1.55
1.478
1.412
1.353
1.3
3.95
3.937
3.912
3.876
3.829
3.772
3.706
3.63
3.546
3.455
3.358
3.255
3.147
3.036
2.922
2.806
2.689
2.573
2.458
2.344
2.233
2.125
2.022
1.922
1.828
1.739
1.656
1.578
1.507
1.442
1.383
1.33
3.908
3.894
3.868
3.83
3.78
3.72
3.649
3.569
3.48
3.384
3.281
3.172
3.058
2.94
2.82
2.698
2.576
2.453
2.332
2.214
2.098
1.986
1.878
1.776
1.678
1.587
1.501
1.423
1.35
1.284
1.225
1.172
3.909
3.895
3.869
3.831
3.781
3.721
3.651
3.571
3.483
3.387
3.284
3.176
3.062
2.945
2.825
2.704
2.582
2.46
2.34
2.221
2.106
1.994
1.887
1.785
1.688
1.596
1.511
1.432
1.36
1.294
1.235
1.182
3.91
3.896
3.87
3.833
3.784
3.724
3.655
3.576
3.488
3.393
3.291
3.183
3.071
2.955
2.836
2.716
2.595
2.474
2.354
2.237
2.122
2.011
1.904
1.802
1.706
1.615
1.53
1.452
1.379
1.314
1.254
1.202
3.912
3.898
3.873
3.836
3.787
3.729
3.66
3.582
3.496
3.402
3.301
3.195
3.084
2.969
2.852
2.733
2.613
2.494
2.376
2.259
2.146
2.036
1.93
1.829
1.733
1.643
1.559
1.481
1.409
1.343
1.284
1.231
3.871
3.857
3.83
3.79
3.739
3.677
3.604
3.522
3.43
3.331
3.224
3.112
2.995
2.874
2.75
2.625
2.499
2.374
2.25
2.128
2.01
1.896
1.786
1.682
1.583
1.491
1.405
1.325
1.253
1.187
1.127
1.075
3.872
3.858
3.831
3.791
3.741
3.679
3.606
3.524
3.433
3.334
3.228
3.116
2.999
2.879
2.756
2.631
2.505
2.381
2.257
2.136
2.018
1.905
1.795
1.691
1.593
1.5
1.415
1.335
1.263
1.197
1.137
1.085
3.873
3.859
3.832
3.794
3.743
3.682
3.61
3.528
3.438
3.34
3.235
3.124
3.008
2.889
2.767
2.643
2.519
2.395
2.272
2.152
2.035
1.922
1.813
1.71
1.612
1.52
1.434
1.355
1.282
1.217
1.157
1.105
3.875
3.861
3.835
3.797
3.747
3.686
3.616
3.535
3.446
3.349
3.246
3.136
3.022
2.904
2.783
2.661
2.538
2.416
2.294
2.176
2.06
1.947
1.84
1.737
1.64
1.548
1.463
1.384
1.312
1.246
1.187
1.135
3.835
3.821
3.793
3.752
3.7
3.635
3.56
3.475
3.381
3.278
3.169
3.053
2.932
2.808
2.681
2.552
2.423
2.295
2.168
2.044
1.923
1.807
1.695
1.59
1.49
1.396
1.31
1.23
1.157
1.091
1.032
0.9802
3.836
3.822
3.794
3.754
3.701
3.637
3.562
3.478
3.384
3.282
3.173
3.057
2.937
2.813
2.687
2.559
2.43
2.302
2.176
2.052
1.932
1.816
1.705
1.599
1.499
1.406
1.319
1.24
1.167
1.101
1.042
0.9902
3.838
3.823
3.796
3.756
3.704
3.641
3.566
3.482
3.389
3.288
3.18
3.066
2.947
2.824
2.698
2.571
2.444
2.317
2.191
2.068
1.949
1.834
1.723
1.618
1.519
1.426
1.339
1.26
1.187
1.121
1.062
1.01
3.84
3.826
3.799
3.759
3.708
3.645
3.572
3.489
3.398
3.298
3.191
3.078
2.961
2.839
2.715
2.59
2.464
2.338
2.214
2.093
1.974
1.86
1.75
1.646
1.547
1.455
1.369
1.29
1.217
1.151
1.092
1.04
3.801
3.786
3.757
3.716
3.661
3.595
3.518
3.43
3.333
3.227
3.114
2.995
2.871
2.743
2.613
2.481
2.349
2.217
2.087
1.961
1.838
1.719
1.606
1.499
1.398
1.303
1.216
1.136
1.063
0.9979
0.9395
0.8882
3.802
3.787
3.758
3.717
3.663
3.597
3.52
3.433
3.336
3.231
3.118
3
2.876
2.749
2.619
2.487
2.356
2.225
2.095
1.969
1.846
1.728
1.615
1.508
1.407
1.313
1.226
1.146
1.073
1.008
0.9496
0.8981
3.804
3.789
3.761
3.719
3.666
3.601
3.524
3.438
3.342
3.238
3.126
3.009
2.886
2.76
2.631
2.5
2.37
2.24
2.111
1.986
1.864
1.747
1.634
1.527
1.427
1.333
1.246
1.166
1.094
1.028
0.9696
0.918
3.806
3.791
3.763
3.723
3.67
3.606
3.53
3.445
3.35
3.248
3.138
3.022
2.901
2.776
2.649
2.52
2.391
2.262
2.135
2.011
1.89
1.774
1.662
1.556
1.456
1.363
1.276
1.197
1.124
1.058
0.9998
0.948
3.768
3.753
3.723
3.68
3.625
3.556
3.477
3.386
3.286
3.178
3.061
2.939
2.811
2.68
2.546
3.769
3.754
3.725
3.682
3.626
3.558
3.479
3.389
3.289
3.181
3.066
2.944
2.817
2.686
3.771
3.756
3.727
3.684
3.629
3.562
3.483
3.394
3.296
3.188
3.074
2.953
2.827
3.773
3.758
3.73
3.688
3.634
3.567
3.49
3.402
3.305
3.199
3.086
2.966
4.663
4.654
4.638
4.616
4.588
4.554
4.514
4.469
4.419
4.365
4.306
4.244
4.178
4.108
4.037
3.963
3.887
3.811
3.734
3.657
3.58
3.504
3.429
3.356
3.285
3.217
3.151
3.089
3.031
2.976
2.926
2.88
4.663
4.654
4.638
4.616
4.588
4.555
4.516
4.473
4.424
4.37
4.313
4.251
4.187
4.119
4.049
3.976
3.902
3.827
3.752
3.676
3.6
3.526
3.452
3.381
3.311
3.244
3.18
3.119
3.062
3.008
2.959
2.913
4.662
4.653
4.638
4.616
4.589
4.557
4.519
4.476
4.429
4.376
4.32
4.26
4.197
4.131
4.062
3.992
3.92
3.846
3.772
3.698
3.625
3.552
3.48
3.41
3.342
3.277
3.214
3.154
3.098
3.046
2.997
2.953
4.661
4.652
4.637
4.616
4.59
4.558
4.521
4.48
4.433
4.383
4.328
4.27
4.209
4.145
4.078
4.009
3.939
3.868
3.796
3.724
3.653
3.582
3.512
3.444
3.378
3.314
3.253
3.195
3.14
3.089
3.041
2.998
4.658
4.649
4.635
4.615
4.589
4.559
4.523
4.483
4.438
4.39
4.337
4.281
4.221
4.159
4.095
4.028
3.961
3.892
3.822
3.753
3.683
3.615
3.547
3.481
3.417
3.355
3.296
3.239
3.186
3.137
3.091
3.049
4.655
4.646
4.632
4.613
4.588
4.559
4.525
4.486
4.443
4.396
4.346
4.292
4.235
4.175
4.113
4.049
3.984
3.917
3.851
3.784
3.717
3.651
3.585
3.522
3.46
3.4
3.343
3.289
3.238
3.19
3.145
3.105
4.65
4.641
4.628
4.609
4.586
4.558
4.525
4.488
4.447
4.403
4.354
4.303
4.248
4.191
4.132
4.071
4.008
3.945
3.881
3.816
3.752
3.689
3.627
3.566
3.506
3.449
3.394
3.342
3.293
3.247
3.204
3.165
4.643
4.635
4.622
4.604
4.582
4.556
4.525
4.49
4.451
4.408
4.362
4.313
4.261
4.207
4.151
4.093
4.033
3.973
3.912
3.851
3.79
3.73
3.67
3.612
3.556
3.501
3.449
3.399
3.352
3.308
3.267
3.23
4.634
4.627
4.614
4.598
4.577
4.552
4.523
4.49
4.453
4.413
4.37
4.323
4.274
4.223
4.17
4.115
4.059
4.002
3.945
3.887
3.829
3.772
3.716
3.661
3.607
3.556
3.506
3.459
3.414
3.372
3.334
3.299
4.623
4.616
4.605
4.589
4.569
4.546
4.519
4.488
4.454
4.416
4.376
4.332
4.287
4.239
4.189
4.138
4.085
4.032
3.978
3.924
3.87
3.816
3.763
3.711
3.661
3.612
3.566
3.521
3.479
3.44
3.403
3.37
4.61
4.603
4.592
4.578
4.56
4.538
4.513
4.484
4.453
4.418
4.38
4.34
4.298
4.254
4.207
4.16
4.111
4.061
4.011
3.961
3.91
3.861
3.811
3.763
3.716
3.671
3.627
3.586
3.546
3.51
3.476
3.444
4.593
4.587
4.577
4.564
4.547
4.528
4.505
4.479
4.45
4.418
4.384
4.347
4.308
4.267
4.225
4.181
4.136
4.09
4.044
3.998
3.951
3.905
3.86
3.816
3.772
3.73
3.69
3.652
3.615
3.581
3.55
3.521
4.573
4.567
4.559
4.547
4.532
4.515
4.494
4.47
4.444
4.416
4.384
4.351
4.316
4.279
4.24
4.201
4.16
4.118
4.076
4.034
3.992
3.95
3.909
3.868
3.828
3.79
3.753
3.718
3.685
3.654
3.625
3.599
4.549
4.545
4.537
4.527
4.514
4.499
4.48
4.46
4.436
4.411
4.383
4.353
4.322
4.288
4.254
4.218
4.182
4.144
4.107
4.069
4.031
3.993
3.956
3.919
3.883
3.849
3.816
3.784
3.754
3.726
3.699
3.676
4.524
4.521
4.515
4.506
4.495
4.481
4.465
4.447
4.426
4.403
4.378
4.352
4.324
4.294
4.263
4.231
4.198
4.165
4.131
4.097
4.063
4.029
3.996
3.963
3.93
3.899
3.869
3.841
3.814
3.788
3.764
3.743
4.608
4.598
4.582
4.559
4.53
4.495
4.454
4.408
4.356
4.3
4.239
4.174
4.106
4.035
3.961
3.885
3.808
3.729
3.65
3.571
3.492
3.415
3.338
3.264
3.192
3.122
3.056
2.993
2.934
2.879
2.828
2.781
4.608
4.598
4.582
4.56
4.531
4.497
4.457
4.411
4.361
4.306
4.246
4.183
4.116
4.046
3.974
3.899
3.823
3.746
3.669
3.591
3.514
3.438
3.363
3.29
3.219
3.151
3.086
3.024
2.966
2.912
2.862
2.816
4.607
4.598
4.582
4.56
4.532
4.498
4.459
4.415
4.366
4.312
4.254
4.192
4.127
4.059
3.988
3.916
3.841
3.766
3.691
3.615
3.539
3.465
3.392
3.32
3.251
3.185
3.121
3.06
3.003
2.95
2.901
2.857
4.606
4.597
4.581
4.56
4.533
4.5
4.462
4.419
4.371
4.319
4.263
4.203
4.139
4.073
4.005
3.934
3.862
3.789
3.715
3.642
3.568
3.496
3.425
3.355
3.288
3.223
3.161
3.102
3.047
2.995
2.947
2.903
4.603
4.594
4.579
4.559
4.533
4.501
4.464
4.423
4.377
4.326
4.272
4.214
4.153
4.089
4.023
3.954
3.885
3.814
3.743
3.671
3.6
3.53
3.461
3.394
3.329
3.266
3.206
3.149
3.095
3.045
2.998
2.956
4.6
4.591
4.577
4.557
4.532
4.501
4.466
4.426
4.382
4.334
4.281
4.226
4.167
4.105
4.042
3.976
3.909
3.841
3.772
3.704
3.635
3.568
3.501
3.437
3.374
3.313
3.255
3.2
3.148
3.099
3.054
3.014
4.595
4.587
4.573
4.554
4.53
4.501
4.467
4.429
4.387
4.341
4.291
4.237
4.181
4.122
4.061
3.999
3.935
3.87
3.804
3.738
3.673
3.608
3.544
3.482
3.422
3.364
3.308
3.255
3.205
3.158
3.115
3.076
4.588
4.581
4.567
4.549
4.526
4.499
4.467
4.431
4.391
4.347
4.299
4.249
4.196
4.14
4.082
4.022
3.961
3.899
3.837
3.774
3.712
3.65
3.59
3.531
3.473
3.418
3.364
3.314
3.266
3.222
3.18
3.143
4.58
4.572
4.56
4.543
4.521
4.495
4.465
4.431
4.393
4.352
4.307
4.26
4.209
4.157
4.102
4.046
3.988
3.93
3.871
3.812
3.753
3.695
3.637
3.581
3.527
3.474
3.424
3.376
3.331
3.288
3.249
3.213
4.569
4.562
4.55
4.534
4.514
4.49
4.462
4.43
4.395
4.356
4.314
4.27
4.223
4.173
4.122
4.07
4.016
3.961
3.906
3.85
3.795
3.74
3.686
3.634
3.582
3.533
3.486
3.44
3.398
3.358
3.321
3.287
4.555
4.548
4.537
4.523
4.504
4.482
4.456
4.427
4.394
4.358
4.32
4.278
4.235
4.189
4.142
4.093
4.043
3.992
3.941
3.889
3.838
3.787
3.737
3.688
3.64
3.594
3.549
3.507
3.467
3.43
3.396
3.364
4.538
4.532
4.522
4.509
4.492
4.471
4.448
4.421
4.391
4.359
4.323
4.285
4.246
4.204
4.16
4.115
4.069
4.023
3.975
3.928
3.881
3.834
3.787
3.742
3.698
3.655
3.614
3.575
3.539
3.504
3.472
3.443
4.518
4.512
4.504
4.492
4.477
4.458
4.437
4.413
4.386
4.357
4.325
4.29
4.254
4.216
4.177
4.136
4.095
4.052
4.009
3.966
3.923
3.88
3.838
3.797
3.756
3.717
3.68
3.644
3.611
3.579
3.55
3.523
4.494
4.489
4.482
4.472
4.458
4.442
4.424
4.402
4.378
4.352
4.323
4.293
4.261
4.227
4.191
4.155
4.118
4.079
4.041
4.002
3.963
3.925
3.887
3.85
3.813
3.778
3.744
3.712
3.682
3.653
3.627
3.602
4.468
4.465
4.459
4.45
4.439
4.425
4.408
4.389
4.368
4.344
4.319
4.292
4.263
4.233
4.201
4.169
4.135
4.101
4.067
4.032
3.997
3.963
3.928
3.895
3.862
3.831
3.8
3.771
3.743
3.718
3.694
3.672
4.554
4.544
4.527
4.503
4.473
4.437
4.395
4.347
4.294
4.235
4.173
4.106
4.035
3.962
3.886
3.808
3.728
3.647
3.566
3.485
3.405
3.325
3.247
3.172
3.098
3.028
2.96
2.896
2.836
2.781
2.729
2.682
4.554
4.544
4.527
4.504
4.475
4.439
4.398
4.351
4.299
4.242
4.18
4.115
4.046
3.974
3.899
3.823
3.744
3.665
3.586
3.506
3.427
3.349
3.273
3.199
3.126
3.057
2.991
2.928
2.869
2.815
2.764
2.718
4.553
4.544
4.527
4.505
4.476
4.441
4.401
4.355
4.304
4.249
4.189
4.125
4.058
3.987
3.915
3.84
3.764
3.686
3.609
3.531
3.454
3.378
3.303
3.23
3.16
3.092
3.027
2.966
2.908
2.855
2.805
2.76
4.552
4.543
4.527
4.505
4.477
4.443
4.404
4.359
4.31
4.256
4.198
4.136
4.071
4.002
3.932
3.859
3.785
3.71
3.635
3.559
3.484
3.41
3.337
3.267
3.198
3.132
3.069
3.009
2.953
2.9
2.852
2.808
4.55
4.541
4.525
4.504
4.477
4.444
4.407
4.364
4.316
4.264
4.208
4.148
4.085
4.019
3.951
3.88
3.809
3.736
3.663
3.59
3.518
3.446
3.376
3.307
3.24
3.177
3.115
3.057
3.003
2.952
2.905
2.862
4.546
4.538
4.523
4.502
4.476
4.445
4.409
4.368
4.322
4.272
4.218
4.16
4.1
4.036
3.971
3.903
3.834
3.765
3.694
3.624
3.554
3.485
3.417
3.351
3.287
3.225
3.166
3.11
3.058
3.008
2.963
2.922
4.542
4.533
4.519
4.499
4.475
4.445
4.41
4.371
4.327
4.279
4.228
4.173
4.115
4.054
3.992
3.927
3.861
3.795
3.727
3.66
3.593
3.527
3.462
3.399
3.337
3.278
3.221
3.168
3.117
3.07
3.026
2.986
4.535
4.527
4.514
4.495
4.471
4.443
4.41
4.373
4.331
4.286
4.237
4.185
4.13
4.073
4.013
3.952
3.889
3.826
3.762
3.698
3.634
3.571
3.509
3.449
3.39
3.334
3.28
3.228
3.18
3.135
3.093
3.055
4.527
4.519
4.506
4.488
4.466
4.44
4.409
4.374
4.335
4.292
4.246
4.197
4.145
4.091
4.035
3.977
3.918
3.858
3.798
3.737
3.677
3.617
3.559
3.502
3.446
3.393
3.341
3.293
3.247
3.204
3.164
3.128
4.516
4.508
4.496
4.48
4.459
4.434
4.405
4.373
4.336
4.296
4.254
4.208
4.159
4.109
4.056
4.002
3.947
3.891
3.834
3.777
3.721
3.665
3.61
3.556
3.504
3.454
3.405
3.36
3.316
3.276
3.239
3.205
4.502
4.495
4.484
4.468
4.449
4.426
4.4
4.37
4.336
4.299
4.26
4.217
4.172
4.125
4.077
4.027
3.975
3.923
3.871
3.818
3.765
3.713
3.662
3.612
3.564
3.517
3.472
3.429
3.388
3.351
3.316
3.284
4.485
4.478
4.468
4.454
4.437
4.416
4.392
4.364
4.334
4.3
4.264
4.225
4.184
4.141
4.096
4.05
4.003
3.955
3.907
3.858
3.81
3.762
3.715
3.669
3.624
3.581
3.539
3.499
3.462
3.427
3.395
3.365
4.464
4.458
4.449
4.437
4.422
4.403
4.381
4.356
4.329
4.298
4.266
4.231
4.193
4.155
4.114
4.072
4.03
3.986
3.942
3.898
3.854
3.811
3.768
3.726
3.685
3.645
3.607
3.571
3.536
3.504
3.475
3.448
4.439
4.435
4.427
4.417
4.403
4.387
4.367
4.345
4.321
4.294
4.265
4.233
4.2
4.166
4.129
4.092
4.054
4.015
3.976
3.936
3.897
3.857
3.819
3.781
3.744
3.708
3.674
3.641
3.61
3.581
3.554
3.529
4.413
4.41
4.404
4.395
4.383
4.369
4.352
4.332
4.311
4.287
4.261
4.233
4.203
4.172
4.14
4.107
4.073
4.038
4.003
3.967
3.932
3.897
3.862
3.828
3.794
3.762
3.731
3.702
3.674
3.647
3.623
3.601
4.5
4.49
4.473
4.449
4.418
4.38
4.336
4.287
4.232
4.172
4.107
4.038
3.965
3.889
3.811
3.731
3.649
3.566
3.482
3.399
3.317
3.236
3.156
3.079
3.004
2.932
2.864
2.799
2.738
2.682
2.63
2.582
4.501
4.491
4.474
4.45
4.419
4.382
4.34
4.291
4.237
4.178
4.115
4.047
3.976
3.902
3.825
3.746
3.666
3.585
3.503
3.421
3.341
3.261
3.183
3.107
3.034
2.963
2.896
2.832
2.772
2.717
2.666
2.619
4.5
4.49
4.474
4.45
4.421
4.385
4.343
4.296
4.243
4.186
4.124
4.058
3.989
3.916
3.841
3.764
3.686
3.607
3.527
3.447
3.368
3.29
3.214
3.14
3.068
2.999
2.933
2.871
2.813
2.758
2.708
2.662
4.499
4.49
4.473
4.451
4.422
4.387
4.347
4.301
4.25
4.194
4.134
4.07
4.002
3.932
3.859
3.785
3.708
3.631
3.554
3.477
3.4
3.324
3.25
3.178
3.108
3.041
2.977
2.916
2.859
2.806
2.757
2.712
4.497
4.488
4.472
4.45
4.422
4.389
4.35
4.305
4.256
4.202
4.144
4.083
4.018
3.95
3.879
3.807
3.733
3.659
3.584
3.509
3.435
3.362
3.29
3.22
3.152
3.087
3.025
2.966
2.91
2.859
2.811
2.768
4.494
4.485
4.47
4.449
4.422
4.39
4.352
4.31
4.262
4.211
4.155
4.096
4.033
3.968
3.9
3.831
3.76
3.689
3.617
3.544
3.473
3.402
3.333
3.266
3.2
3.137
3.077
3.021
2.967
2.917
2.871
2.829
4.489
4.481
4.466
4.446
4.42
4.39
4.354
4.313
4.268
4.219
4.166
4.109
4.049
3.987
3.923
3.856
3.789
3.72
3.651
3.582
3.514
3.446
3.38
3.315
3.252
3.192
3.134
3.08
3.028
2.981
2.936
2.896
4.483
4.475
4.461
4.442
4.417
4.388
4.354
4.316
4.273
4.226
4.176
4.122
4.066
4.007
3.945
3.882
3.818
3.753
3.687
3.622
3.557
3.492
3.429
3.367
3.308
3.25
3.195
3.143
3.094
3.048
3.006
2.967
4.474
4.467
4.453
4.435
4.413
4.385
4.353
4.317
4.277
4.233
4.185
4.135
4.082
4.026
3.968
3.909
3.848
3.787
3.725
3.663
3.601
3.54
3.481
3.422
3.366
3.311
3.259
3.21
3.163
3.119
3.079
3.043
4.463
4.456
4.444
4.427
4.405
4.38
4.35
4.316
4.279
4.238
4.194
4.146
4.097
4.045
3.991
3.935
3.878
3.821
3.763
3.705
3.647
3.59
3.534
3.479
3.426
3.374
3.325
3.279
3.235
3.194
3.156
3.122
4.449
4.442
4.431
4.415
4.396
4.372
4.345
4.314
4.279
4.241
4.2
4.157
4.111
4.062
4.012
3.961
3.908
3.855
3.801
3.747
3.693
3.64
3.588
3.537
3.487
3.44
3.394
3.35
3.309
3.271
3.236
3.203
4.432
4.426
4.415
4.401
4.383
4.362
4.337
4.308
4.277
4.242
4.205
4.165
4.123
4.079
4.033
3.986
3.938
3.889
3.839
3.789
3.74
3.691
3.643
3.596
3.55
3.506
3.464
3.423
3.385
3.35
3.317
3.287
4.411
4.405
4.396
4.383
4.368
4.348
4.326
4.301
4.272
4.241
4.207
4.171
4.133
4.093
4.052
4.009
3.965
3.921
3.876
3.831
3.786
3.742
3.698
3.655
3.613
3.573
3.534
3.497
3.463
3.43
3.4
3.372
4.386
4.381
4.373
4.363
4.349
4.332
4.312
4.29
4.264
4.237
4.207
4.175
4.141
4.105
4.068
4.03
3.991
3.951
3.911
3.871
3.83
3.79
3.751
3.712
3.674
3.638
3.603
3.57
3.538
3.509
3.481
3.456
4.359
4.356
4.349
4.34
4.328
4.314
4.296
4.276
4.254
4.23
4.203
4.174
4.144
4.113
4.08
4.046
4.011
3.975
3.939
3.903
3.867
3.831
3.796
3.761
3.727
3.694
3.663
3.633
3.604
3.577
3.553
3.53
4.448
4.438
4.42
4.395
4.363
4.324
4.279
4.228
4.171
4.109
4.042
3.97
3.895
3.817
3.736
3.654
3.569
3.484
3.399
3.314
3.229
3.146
3.065
2.986
2.91
2.837
2.767
2.702
2.64
2.583
2.53
2.482
4.449
4.439
4.421
4.396
4.365
4.327
4.283
4.232
4.177
4.116
4.05
3.98
3.907
3.83
3.751
3.67
3.587
3.504
3.42
3.337
3.254
3.172
3.093
3.015
2.94
2.869
2.8
2.736
2.675
2.619
2.567
2.52
4.448
4.439
4.421
4.397
4.367
4.33
4.286
4.238
4.183
4.124
4.06
3.992
3.92
3.845
3.768
3.689
3.608
3.527
3.445
3.364
3.283
3.203
3.125
3.049
2.976
2.906
2.839
2.776
2.717
2.661
2.611
2.565
4.448
4.438
4.421
4.398
4.368
4.332
4.29
4.243
4.19
4.132
4.07
4.004
3.935
3.862
3.787
3.71
3.632
3.553
3.473
3.394
3.316
3.238
3.162
3.089
3.017
2.949
2.884
2.822
2.764
2.711
2.661
2.616
4.446
4.436
4.42
4.398
4.369
4.334
4.294
4.248
4.197
4.141
4.082
4.018
3.951
3.881
3.808
3.734
3.658
3.582
3.505
3.428
3.352
3.277
3.204
3.132
3.063
2.997
2.934
2.874
2.818
2.765
2.717
2.673
4.443
4.434
4.418
4.396
4.369
4.335
4.297
4.253
4.204
4.151
4.093
4.032
3.967
3.9
3.831
3.759
3.686
3.613
3.539
3.465
3.392
3.32
3.249
3.18
3.113
3.049
2.988
2.931
2.876
2.826
2.779
2.737
4.438
4.43
4.415
4.394
4.367
4.336
4.299
4.257
4.21
4.159
4.104
4.046
3.985
3.92
3.854
3.786
3.716
3.646
3.575
3.504
3.434
3.365
3.297
3.231
3.168
3.106
3.048
2.992
2.94
2.891
2.846
2.806
4.432
4.424
4.409
4.39
4.365
4.335
4.299
4.26
4.216
4.167
4.115
4.06
4.002
3.941
3.878
3.813
3.747
3.68
3.613
3.546
3.479
3.413
3.349
3.286
3.225
3.166
3.11
3.057
3.008
2.961
2.918
2.879
4.423
4.415
4.402
4.383
4.36
4.332
4.299
4.261
4.22
4.175
4.126
4.074
4.019
3.961
3.902
3.841
3.779
3.716
3.652
3.589
3.526
3.463
3.402
3.343
3.285
3.23
3.177
3.126
3.079
3.035
2.994
2.957
4.412
4.405
4.392
4.375
4.353
4.326
4.296
4.261
4.222
4.18
4.135
4.086
4.035
3.981
3.926
3.869
3.81
3.751
3.692
3.632
3.573
3.515
3.458
3.402
3.348
3.295
3.245
3.198
3.153
3.112
3.073
3.038
4.398
4.391
4.379
4.363
4.343
4.319
4.291
4.259
4.223
4.184
4.142
4.097
4.05
4
3.949
3.896
3.842
3.787
3.732
3.677
3.622
3.568
3.514
3.462
3.412
3.363
3.316
3.272
3.23
3.192
3.156
3.123
4.38
4.374
4.363
4.349
4.33
4.308
4.283
4.254
4.221
4.185
4.147
4.106
4.063
4.017
3.97
3.922
3.873
3.822
3.772
3.721
3.67
3.621
3.571
3.523
3.477
3.432
3.389
3.348
3.309
3.273
3.24
3.209
4.359
4.353
4.344
4.331
4.315
4.295
4.272
4.246
4.216
4.184
4.15
4.113
4.074
4.033
3.99
3.947
3.902
3.856
3.81
3.764
3.718
3.673
3.628
3.585
3.542
3.501
3.462
3.424
3.389
3.356
3.325
3.297
4.333
4.329
4.321
4.309
4.295
4.278
4.258
4.235
4.209
4.18
4.15
4.117
4.082
4.046
4.008
3.969
3.929
3.888
3.847
3.806
3.764
3.724
3.683
3.644
3.606
3.569
3.533
3.499
3.467
3.437
3.409
3.384
4.306
4.302