/*--------------------------------*- C++ -*----------------------------------*\
  =========                 |
  \\      /  F ield         | OpenFOAM: The Open Source CFD Toolbox
   \\    /   O peration     | Website:  https://openfoam.org
    \\  /    A nd           | Version:  6
     \\/     M anipulation  |
\*---------------------------------------------------------------------------*/
FoamFile
{
    version     2.0;
    format      ascii;
    class       volScalarField;
    location    "5";
    object      Umag;
}
// * * * * * * * * * * * * * * * * * * * * * * * * * * * * * * * * * * * * * //

dimensions      [0 0 0 0 0 0 0];

internalField   nonuniform List<scalar> 
16128
(
6.604e-06
1.199e-05
1.313e-05
1.34e-05
1.354e-05
1.368e-05
1.384e-05
1.403e-05
1.425e-05
1.45e-05
1.477e-05
1.507e-05
1.54e-05
1.576e-05
1.614e-05
1.654e-05
1.697e-05
1.742e-05
1.788e-05
1.837e-05
1.887e-05
1.938e-05
1.991e-05
2.043e-05
2.097e-05
2.15e-05
2.202e-05
2.253e-05
2.303e-05
2.351e-05
2.396e-05
2.439e-05
6.604e-06
1.199e-05
1.313e-05
1.34e-05
1.354e-05
1.368e-05
1.384e-05
1.403e-05
1.425e-05
1.45e-05
1.477e-05
1.507e-05
1.54e-05
1.575e-05
1.613e-05
1.654e-05
1.696e-05
1.741e-05
1.788e-05
1.836e-05
1.887e-05
1.938e-05
1.99e-05
2.043e-05
2.096e-05
2.149e-05
2.201e-05
2.252e-05
2.302e-05
2.35e-05
2.395e-05
2.438e-05
6.603e-06
1.199e-05
1.313e-05
1.34e-05
1.354e-05
1.368e-05
1.384e-05
1.403e-05
1.425e-05
1.449e-05
1.477e-05
1.507e-05
1.54e-05
1.575e-05
1.613e-05
1.653e-05
1.696e-05
1.74e-05
1.787e-05
1.836e-05
1.886e-05
1.937e-05
1.989e-05
2.042e-05
2.094e-05
2.147e-05
2.199e-05
2.251e-05
2.3e-05
2.348e-05
2.393e-05
2.436e-05
6.602e-06
1.199e-05
1.313e-05
1.34e-05
1.354e-05
1.367e-05
1.384e-05
1.403e-05
1.424e-05
1.449e-05
1.476e-05
1.506e-05
1.539e-05
1.574e-05
1.612e-05
1.652e-05
1.695e-05
1.739e-05
1.786e-05
1.834e-05
1.884e-05
1.935e-05
1.987e-05
2.04e-05
2.092e-05
2.145e-05
2.197e-05
2.248e-05
2.297e-05
2.345e-05
2.39e-05
2.432e-05
6.587e-06
1.196e-05
1.31e-05
1.337e-05
1.351e-05
1.365e-05
1.381e-05
1.4e-05
1.422e-05
1.447e-05
1.475e-05
1.505e-05
1.538e-05
1.574e-05
1.612e-05
1.653e-05
1.696e-05
1.741e-05
1.788e-05
1.837e-05
1.888e-05
1.94e-05
1.992e-05
2.046e-05
2.1e-05
2.153e-05
2.206e-05
2.258e-05
2.309e-05
2.357e-05
2.403e-05
2.446e-05
6.587e-06
1.196e-05
1.31e-05
1.337e-05
1.351e-05
1.365e-05
1.381e-05
1.4e-05
1.422e-05
1.447e-05
1.474e-05
1.505e-05
1.538e-05
1.573e-05
1.612e-05
1.652e-05
1.695e-05
1.741e-05
1.788e-05
1.837e-05
1.887e-05
1.939e-05
1.992e-05
2.045e-05
2.099e-05
2.152e-05
2.205e-05
2.257e-05
2.308e-05
2.356e-05
2.402e-05
2.445e-05
6.586e-06
1.196e-05
1.31e-05
1.337e-05
1.35e-05
1.364e-05
1.381e-05
1.4e-05
1.422e-05
1.447e-05
1.474e-05
1.504e-05
1.537e-05
1.573e-05
1.611e-05
1.652e-05
1.695e-05
1.74e-05
1.787e-05
1.836e-05
1.886e-05
1.938e-05
1.991e-05
2.044e-05
2.097e-05
2.151e-05
2.203e-05
2.255e-05
2.306e-05
2.354e-05
2.4e-05
2.443e-05
6.585e-06
1.196e-05
1.309e-05
1.336e-05
1.35e-05
1.364e-05
1.38e-05
1.399e-05
1.421e-05
1.446e-05
1.474e-05
1.504e-05
1.537e-05
1.572e-05
1.61e-05
1.651e-05
1.694e-05
1.739e-05
1.786e-05
1.834e-05
1.885e-05
1.936e-05
1.989e-05
2.042e-05
2.095e-05
2.148e-05
2.201e-05
2.252e-05
2.303e-05
2.351e-05
2.396e-05
2.439e-05
6.557e-06
1.191e-05
1.304e-05
1.331e-05
1.345e-05
1.359e-05
1.375e-05
1.395e-05
1.417e-05
1.442e-05
1.47e-05
1.501e-05
1.534e-05
1.57e-05
1.609e-05
1.65e-05
1.694e-05
1.74e-05
1.788e-05
1.838e-05
1.889e-05
1.942e-05
1.996e-05
2.05e-05
2.105e-05
2.159e-05
2.214e-05
2.267e-05
2.318e-05
2.368e-05
2.415e-05
2.459e-05
6.556e-06
1.191e-05
1.304e-05
1.331e-05
1.345e-05
1.359e-05
1.375e-05
1.395e-05
1.417e-05
1.442e-05
1.47e-05
1.5e-05
1.534e-05
1.57e-05
1.609e-05
1.65e-05
1.694e-05
1.74e-05
1.788e-05
1.837e-05
1.889e-05
1.941e-05
1.995e-05
2.049e-05
2.104e-05
2.159e-05
2.213e-05
2.266e-05
2.317e-05
2.366e-05
2.414e-05
2.458e-05
6.555e-06
1.19e-05
1.304e-05
1.33e-05
1.344e-05
1.358e-05
1.375e-05
1.394e-05
1.416e-05
1.442e-05
1.469e-05
1.5e-05
1.533e-05
1.57e-05
1.608e-05
1.649e-05
1.693e-05
1.739e-05
1.787e-05
1.836e-05
1.888e-05
1.94e-05
1.994e-05
2.048e-05
2.102e-05
2.157e-05
2.211e-05
2.263e-05
2.315e-05
2.364e-05
2.411e-05
2.455e-05
6.554e-06
1.19e-05
1.303e-05
1.33e-05
1.344e-05
1.358e-05
1.375e-05
1.394e-05
1.416e-05
1.441e-05
1.469e-05
1.499e-05
1.533e-05
1.569e-05
1.607e-05
1.648e-05
1.692e-05
1.738e-05
1.785e-05
1.835e-05
1.886e-05
1.938e-05
1.992e-05
2.046e-05
2.1e-05
2.154e-05
2.208e-05
2.261e-05
2.312e-05
2.361e-05
2.407e-05
2.451e-05
6.512e-06
1.183e-05
1.295e-05
1.322e-05
1.336e-05
1.35e-05
1.367e-05
1.387e-05
1.409e-05
1.435e-05
1.463e-05
1.495e-05
1.529e-05
1.566e-05
1.605e-05
1.647e-05
1.692e-05
1.739e-05
1.788e-05
1.839e-05
1.891e-05
1.945e-05
2e-05
2.056e-05
2.112e-05
2.169e-05
2.224e-05
2.279e-05
2.332e-05
2.383e-05
2.432e-05
2.477e-05
6.512e-06
1.182e-05
1.295e-05
1.322e-05
1.336e-05
1.35e-05
1.367e-05
1.387e-05
1.409e-05
1.435e-05
1.463e-05
1.494e-05
1.528e-05
1.565e-05
1.605e-05
1.647e-05
1.691e-05
1.738e-05
1.787e-05
1.838e-05
1.891e-05
1.945e-05
2e-05
2.055e-05
2.112e-05
2.168e-05
2.223e-05
2.278e-05
2.331e-05
2.382e-05
2.43e-05
2.476e-05
6.511e-06
1.182e-05
1.295e-05
1.322e-05
1.336e-05
1.35e-05
1.367e-05
1.386e-05
1.409e-05
1.434e-05
1.463e-05
1.494e-05
1.528e-05
1.565e-05
1.604e-05
1.646e-05
1.691e-05
1.737e-05
1.786e-05
1.837e-05
1.889e-05
1.943e-05
1.998e-05
2.054e-05
2.11e-05
2.166e-05
2.221e-05
2.275e-05
2.328e-05
2.379e-05
2.427e-05
2.473e-05
6.51e-06
1.182e-05
1.294e-05
1.321e-05
1.335e-05
1.35e-05
1.366e-05
1.386e-05
1.408e-05
1.434e-05
1.462e-05
1.493e-05
1.527e-05
1.564e-05
1.603e-05
1.645e-05
1.689e-05
1.736e-05
1.785e-05
1.835e-05
1.888e-05
1.941e-05
1.996e-05
2.051e-05
2.107e-05
2.163e-05
2.218e-05
2.272e-05
2.325e-05
2.375e-05
2.423e-05
2.468e-05
6.454e-06
1.172e-05
1.283e-05
1.31e-05
1.325e-05
1.339e-05
1.356e-05
1.376e-05
1.399e-05
1.426e-05
1.455e-05
1.487e-05
1.521e-05
1.559e-05
1.6e-05
1.643e-05
1.689e-05
1.737e-05
1.787e-05
1.84e-05
1.894e-05
1.95e-05
2.007e-05
2.064e-05
2.123e-05
2.181e-05
2.238e-05
2.295e-05
2.35e-05
2.403e-05
2.454e-05
2.501e-05
6.454e-06
1.172e-05
1.283e-05
1.31e-05
1.325e-05
1.339e-05
1.356e-05
1.376e-05
1.399e-05
1.425e-05
1.454e-05
1.486e-05
1.521e-05
1.559e-05
1.599e-05
1.643e-05
1.688e-05
1.736e-05
1.787e-05
1.839e-05
1.893e-05
1.949e-05
2.006e-05
2.063e-05
2.122e-05
2.18e-05
2.237e-05
2.294e-05
2.349e-05
2.402e-05
2.452e-05
2.499e-05
6.453e-06
1.172e-05
1.283e-05
1.31e-05
1.324e-05
1.339e-05
1.356e-05
1.376e-05
1.399e-05
1.425e-05
1.454e-05
1.486e-05
1.521e-05
1.558e-05
1.599e-05
1.642e-05
1.687e-05
1.736e-05
1.786e-05
1.838e-05
1.892e-05
1.948e-05
2.004e-05
2.062e-05
2.12e-05
2.177e-05
2.235e-05
2.291e-05
2.346e-05
2.399e-05
2.449e-05
2.496e-05
6.451e-06
1.171e-05
1.283e-05
1.31e-05
1.324e-05
1.338e-05
1.356e-05
1.376e-05
1.399e-05
1.424e-05
1.453e-05
1.485e-05
1.52e-05
1.557e-05
1.598e-05
1.641e-05
1.686e-05
1.734e-05
1.784e-05
1.836e-05
1.89e-05
1.945e-05
2.002e-05
2.059e-05
2.117e-05
2.174e-05
2.231e-05
2.287e-05
2.342e-05
2.395e-05
2.445e-05
2.491e-05
6.382e-06
1.159e-05
1.269e-05
1.296e-05
1.311e-05
1.326e-05
1.343e-05
1.364e-05
1.387e-05
1.414e-05
1.444e-05
1.477e-05
1.513e-05
1.552e-05
1.593e-05
1.638e-05
1.685e-05
1.735e-05
1.787e-05
1.841e-05
1.898e-05
1.955e-05
2.015e-05
2.075e-05
2.135e-05
2.196e-05
2.256e-05
2.315e-05
2.373e-05
2.429e-05
2.482e-05
2.532e-05
6.382e-06
1.159e-05
1.269e-05
1.296e-05
1.31e-05
1.325e-05
1.343e-05
1.363e-05
1.387e-05
1.414e-05
1.444e-05
1.477e-05
1.512e-05
1.551e-05
1.593e-05
1.637e-05
1.685e-05
1.734e-05
1.786e-05
1.841e-05
1.897e-05
1.955e-05
2.014e-05
2.074e-05
2.134e-05
2.195e-05
2.255e-05
2.314e-05
2.372e-05
2.427e-05
2.48e-05
2.53e-05
6.381e-06
1.159e-05
1.269e-05
1.296e-05
1.31e-05
1.325e-05
1.343e-05
1.363e-05
1.387e-05
1.413e-05
1.443e-05
1.476e-05
1.512e-05
1.551e-05
1.592e-05
1.637e-05
1.684e-05
1.733e-05
1.785e-05
1.839e-05
1.895e-05
1.953e-05
2.012e-05
2.072e-05
2.132e-05
2.192e-05
2.252e-05
2.311e-05
2.368e-05
2.424e-05
2.476e-05
2.526e-05
6.379e-06
1.158e-05
1.269e-05
1.295e-05
1.31e-05
1.325e-05
1.342e-05
1.363e-05
1.386e-05
1.413e-05
1.443e-05
1.475e-05
1.511e-05
1.55e-05
1.591e-05
1.635e-05
1.682e-05
1.732e-05
1.784e-05
1.837e-05
1.893e-05
1.951e-05
2.009e-05
2.069e-05
2.129e-05
2.189e-05
2.248e-05
2.307e-05
2.364e-05
2.419e-05
2.471e-05
2.52e-05
6.297e-06
1.143e-05
1.252e-05
1.279e-05
1.294e-05
1.309e-05
1.327e-05
1.348e-05
1.373e-05
1.4e-05
1.431e-05
1.465e-05
1.502e-05
1.542e-05
1.586e-05
1.632e-05
1.681e-05
1.733e-05
1.787e-05
1.843e-05
1.902e-05
1.962e-05
2.024e-05
2.087e-05
2.151e-05
2.215e-05
2.278e-05
2.34e-05
2.401e-05
2.46e-05
2.516e-05
2.569e-05
6.296e-06
1.143e-05
1.252e-05
1.279e-05
1.294e-05
1.309e-05
1.327e-05
1.348e-05
1.373e-05
1.4e-05
1.431e-05
1.465e-05
1.502e-05
1.542e-05
1.585e-05
1.631e-05
1.68e-05
1.732e-05
1.786e-05
1.843e-05
1.901e-05
1.962e-05
2.023e-05
2.086e-05
2.15e-05
2.213e-05
2.276e-05
2.339e-05
2.4e-05
2.458e-05
2.514e-05
2.567e-05
6.295e-06
1.143e-05
1.252e-05
1.279e-05
1.294e-05
1.309e-05
1.327e-05
1.348e-05
1.372e-05
1.4e-05
1.43e-05
1.464e-05
1.501e-05
1.541e-05
1.584e-05
1.63e-05
1.679e-05
1.731e-05
1.785e-05
1.841e-05
1.899e-05
1.96e-05
2.021e-05
2.084e-05
2.147e-05
2.21e-05
2.273e-05
2.335e-05
2.396e-05
2.454e-05
2.51e-05
2.562e-05
6.294e-06
1.143e-05
1.252e-05
1.278e-05
1.293e-05
1.308e-05
1.326e-05
1.347e-05
1.372e-05
1.399e-05
1.43e-05
1.463e-05
1.5e-05
1.54e-05
1.583e-05
1.629e-05
1.678e-05
1.729e-05
1.783e-05
1.839e-05
1.897e-05
1.957e-05
2.018e-05
2.08e-05
2.143e-05
2.206e-05
2.269e-05
2.33e-05
2.391e-05
2.449e-05
2.504e-05
2.556e-05
6.197e-06
1.125e-05
1.233e-05
1.259e-05
1.275e-05
1.29e-05
1.309e-05
1.331e-05
1.356e-05
1.385e-05
1.416e-05
1.452e-05
1.49e-05
1.532e-05
1.577e-05
1.625e-05
1.676e-05
1.73e-05
1.787e-05
1.846e-05
1.907e-05
1.971e-05
2.036e-05
2.102e-05
2.17e-05
2.237e-05
2.304e-05
2.371e-05
2.435e-05
2.498e-05
2.558e-05
2.614e-05
6.197e-06
1.125e-05
1.233e-05
1.259e-05
1.274e-05
1.29e-05
1.309e-05
1.331e-05
1.356e-05
1.384e-05
1.416e-05
1.451e-05
1.49e-05
1.531e-05
1.576e-05
1.624e-05
1.675e-05
1.729e-05
1.786e-05
1.845e-05
1.906e-05
1.97e-05
2.035e-05
2.101e-05
2.168e-05
2.235e-05
2.302e-05
2.369e-05
2.433e-05
2.496e-05
2.555e-05
2.612e-05
6.196e-06
1.125e-05
1.232e-05
1.259e-05
1.274e-05
1.29e-05
1.308e-05
1.33e-05
1.355e-05
1.384e-05
1.416e-05
1.451e-05
1.489e-05
1.531e-05
1.575e-05
1.623e-05
1.674e-05
1.728e-05
1.784e-05
1.843e-05
1.904e-05
1.968e-05
2.032e-05
2.098e-05
2.165e-05
2.232e-05
2.299e-05
2.365e-05
2.429e-05
2.491e-05
2.55e-05
2.606e-05
6.194e-06
1.125e-05
1.232e-05
1.259e-05
1.274e-05
1.289e-05
1.308e-05
1.33e-05
1.355e-05
1.383e-05
1.415e-05
1.45e-05
1.488e-05
1.529e-05
1.574e-05
1.622e-05
1.672e-05
1.726e-05
1.782e-05
1.841e-05
1.902e-05
1.964e-05
2.029e-05
2.094e-05
2.161e-05
2.227e-05
2.293e-05
2.359e-05
2.423e-05
2.484e-05
2.543e-05
2.599e-05
6.084e-06
1.105e-05
1.21e-05
1.237e-05
1.253e-05
1.269e-05
1.288e-05
1.311e-05
1.337e-05
1.366e-05
1.4e-05
1.436e-05
1.476e-05
1.52e-05
1.567e-05
1.617e-05
1.67e-05
1.727e-05
1.787e-05
1.849e-05
1.914e-05
1.981e-05
2.05e-05
2.12e-05
2.192e-05
2.264e-05
2.335e-05
2.406e-05
2.476e-05
2.543e-05
2.607e-05
2.668e-05
6.083e-06
1.105e-05
1.21e-05
1.237e-05
1.252e-05
1.269e-05
1.288e-05
1.311e-05
1.337e-05
1.366e-05
1.399e-05
1.436e-05
1.476e-05
1.519e-05
1.566e-05
1.616e-05
1.67e-05
1.726e-05
1.786e-05
1.848e-05
1.913e-05
1.98e-05
2.048e-05
2.119e-05
2.19e-05
2.262e-05
2.333e-05
2.404e-05
2.473e-05
2.54e-05
2.604e-05
2.665e-05
6.082e-06
1.104e-05
1.21e-05
1.237e-05
1.252e-05
1.268e-05
1.288e-05
1.31e-05
1.336e-05
1.366e-05
1.399e-05
1.435e-05
1.475e-05
1.518e-05
1.565e-05
1.615e-05
1.668e-05
1.725e-05
1.784e-05
1.846e-05
1.91e-05
1.977e-05
2.046e-05
2.116e-05
2.186e-05
2.258e-05
2.329e-05
2.399e-05
2.468e-05
2.535e-05
2.599e-05
2.659e-05
6.081e-06
1.104e-05
1.21e-05
1.236e-05
1.252e-05
1.268e-05
1.287e-05
1.31e-05
1.336e-05
1.365e-05
1.398e-05
1.434e-05
1.474e-05
1.517e-05
1.563e-05
1.613e-05
1.666e-05
1.722e-05
1.781e-05
1.843e-05
1.907e-05
1.973e-05
2.042e-05
2.111e-05
2.181e-05
2.252e-05
2.323e-05
2.392e-05
2.461e-05
2.527e-05
2.59e-05
2.65e-05
5.957e-06
1.082e-05
1.185e-05
1.212e-05
1.228e-05
1.245e-05
1.265e-05
1.288e-05
1.315e-05
1.346e-05
1.381e-05
1.419e-05
1.461e-05
1.506e-05
1.555e-05
1.608e-05
1.664e-05
1.724e-05
1.787e-05
1.853e-05
1.921e-05
1.993e-05
2.066e-05
2.141e-05
2.218e-05
2.295e-05
2.372e-05
2.448e-05
2.523e-05
2.596e-05
2.666e-05
2.732e-05
5.956e-06
1.082e-05
1.185e-05
1.212e-05
1.228e-05
1.245e-05
1.265e-05
1.288e-05
1.315e-05
1.346e-05
1.38e-05
1.418e-05
1.46e-05
1.506e-05
1.555e-05
1.607e-05
1.663e-05
1.723e-05
1.786e-05
1.852e-05
1.92e-05
1.991e-05
2.065e-05
2.139e-05
2.216e-05
2.292e-05
2.369e-05
2.445e-05
2.52e-05
2.593e-05
2.662e-05
2.728e-05
5.955e-06
1.081e-05
1.185e-05
1.212e-05
1.227e-05
1.244e-05
1.264e-05
1.288e-05
1.315e-05
1.345e-05
1.38e-05
1.418e-05
1.459e-05
1.505e-05
1.553e-05
1.606e-05
1.662e-05
1.721e-05
1.784e-05
1.849e-05
1.918e-05
1.988e-05
2.061e-05
2.136e-05
2.212e-05
2.288e-05
2.364e-05
2.44e-05
2.514e-05
2.586e-05
2.655e-05
2.72e-05
5.953e-06
1.081e-05
1.185e-05
1.211e-05
1.227e-05
1.244e-05
1.264e-05
1.287e-05
1.314e-05
1.344e-05
1.379e-05
1.417e-05
1.458e-05
1.503e-05
1.552e-05
1.604e-05
1.66e-05
1.719e-05
1.781e-05
1.846e-05
1.914e-05
1.984e-05
2.056e-05
2.13e-05
2.206e-05
2.281e-05
2.357e-05
2.432e-05
2.505e-05
2.577e-05
2.645e-05
2.71e-05
5.817e-06
1.056e-05
1.158e-05
1.184e-05
1.201e-05
1.218e-05
1.239e-05
1.263e-05
1.292e-05
1.324e-05
1.36e-05
1.4e-05
1.443e-05
1.491e-05
1.543e-05
1.598e-05
1.657e-05
1.721e-05
1.787e-05
1.857e-05
1.93e-05
2.007e-05
2.085e-05
2.166e-05
2.248e-05
2.331e-05
2.415e-05
2.497e-05
2.579e-05
2.658e-05
2.734e-05
2.807e-05
5.816e-06
1.056e-05
1.158e-05
1.184e-05
1.2e-05
1.218e-05
1.239e-05
1.263e-05
1.291e-05
1.323e-05
1.359e-05
1.399e-05
1.443e-05
1.49e-05
1.542e-05
1.597e-05
1.657e-05
1.719e-05
1.786e-05
1.856e-05
1.929e-05
2.005e-05
2.083e-05
2.164e-05
2.246e-05
2.328e-05
2.411e-05
2.494e-05
2.575e-05
2.654e-05
2.73e-05
2.802e-05
5.815e-06
1.056e-05
1.157e-05
1.184e-05
1.2e-05
1.218e-05
1.238e-05
1.263e-05
1.291e-05
1.323e-05
1.359e-05
1.398e-05
1.442e-05
1.489e-05
1.541e-05
1.596e-05
1.655e-05
1.717e-05
1.784e-05
1.853e-05
1.926e-05
2.001e-05
2.079e-05
2.159e-05
2.241e-05
2.323e-05
2.406e-05
2.487e-05
2.568e-05
2.646e-05
2.722e-05
2.793e-05
5.813e-06
1.055e-05
1.157e-05
1.183e-05
1.2e-05
1.217e-05
1.238e-05
1.262e-05
1.29e-05
1.322e-05
1.357e-05
1.397e-05
1.44e-05
1.488e-05
1.539e-05
1.594e-05
1.652e-05
1.715e-05
1.78e-05
1.849e-05
1.922e-05
1.996e-05
2.074e-05
2.153e-05
2.234e-05
2.315e-05
2.397e-05
2.478e-05
2.558e-05
2.635e-05
2.71e-05
2.78e-05
5.663e-06
1.028e-05
1.127e-05
1.154e-05
1.171e-05
1.189e-05
1.21e-05
1.236e-05
1.265e-05
1.299e-05
1.337e-05
1.378e-05
1.424e-05
1.474e-05
1.529e-05
1.587e-05
1.65e-05
1.717e-05
1.788e-05
1.863e-05
1.941e-05
2.023e-05
2.107e-05
2.194e-05
2.283e-05
2.373e-05
2.464e-05
2.555e-05
2.644e-05
2.731e-05
2.815e-05
2.895e-05
5.662e-06
1.028e-05
1.127e-05
1.154e-05
1.17e-05
1.189e-05
1.21e-05
1.236e-05
1.265e-05
1.299e-05
1.336e-05
1.378e-05
1.424e-05
1.474e-05
1.528e-05
1.587e-05
1.649e-05
1.716e-05
1.787e-05
1.861e-05
1.939e-05
2.021e-05
2.105e-05
2.192e-05
2.28e-05
2.37e-05
2.461e-05
2.551e-05
2.64e-05
2.726e-05
2.81e-05
2.889e-05
5.66e-06
1.028e-05
1.127e-05
1.154e-05
1.17e-05
1.188e-05
1.21e-05
1.235e-05
1.265e-05
1.298e-05
1.335e-05
1.377e-05
1.423e-05
1.473e-05
1.527e-05
1.585e-05
1.647e-05
1.714e-05
1.784e-05
1.858e-05
1.936e-05
2.017e-05
2.1e-05
2.186e-05
2.274e-05
2.364e-05
2.453e-05
2.543e-05
2.631e-05
2.717e-05
2.8e-05
2.878e-05
5.658e-06
1.027e-05
1.127e-05
1.153e-05
1.17e-05
1.188e-05
1.209e-05
1.234e-05
1.264e-05
1.297e-05
1.334e-05
1.376e-05
1.421e-05
1.471e-05
1.524e-05
1.582e-05
1.644e-05
1.71e-05
1.78e-05
1.854e-05
1.931e-05
2.011e-05
2.094e-05
2.179e-05
2.266e-05
2.354e-05
2.443e-05
2.531e-05
2.618e-05
2.703e-05
2.785e-05
2.862e-05
5.495e-06
9.979e-06
1.095e-05
1.121e-05
1.138e-05
1.157e-05
1.18e-05
1.206e-05
1.237e-05
1.272e-05
1.311e-05
1.355e-05
1.404e-05
1.456e-05
1.514e-05
1.576e-05
1.643e-05
1.714e-05
1.789e-05
1.869e-05
1.953e-05
2.041e-05
2.133e-05
2.227e-05
2.324e-05
2.422e-05
2.522e-05
2.621e-05
2.72e-05
2.816e-05
2.909e-05
2.998e-05
5.494e-06
9.978e-06
1.094e-05
1.121e-05
1.138e-05
1.157e-05
1.179e-05
1.206e-05
1.237e-05
1.272e-05
1.311e-05
1.355e-05
1.403e-05
1.456e-05
1.513e-05
1.575e-05
1.641e-05
1.712e-05
1.788e-05
1.867e-05
1.951e-05
2.039e-05
2.13e-05
2.224e-05
2.32e-05
2.419e-05
2.518e-05
2.617e-05
2.715e-05
2.81e-05
2.903e-05
2.991e-05
5.493e-06
9.975e-06
1.094e-05
1.12e-05
1.138e-05
1.156e-05
1.179e-05
1.205e-05
1.236e-05
1.271e-05
1.31e-05
1.354e-05
1.402e-05
1.454e-05
1.511e-05
1.573e-05
1.639e-05
1.71e-05
1.785e-05
1.864e-05
1.947e-05
2.034e-05
2.125e-05
2.218e-05
2.314e-05
2.411e-05
2.509e-05
2.607e-05
2.704e-05
2.799e-05
2.891e-05
2.978e-05
5.491e-06
9.971e-06
1.094e-05
1.12e-05
1.137e-05
1.156e-05
1.178e-05
1.205e-05
1.235e-05
1.27e-05
1.309e-05
1.352e-05
1.4e-05
1.452e-05
1.509e-05
1.57e-05
1.636e-05
1.706e-05
1.78e-05
1.859e-05
1.941e-05
2.027e-05
2.117e-05
2.209e-05
2.304e-05
2.4e-05
2.497e-05
2.593e-05
2.689e-05
2.783e-05
2.873e-05
2.958e-05
5.315e-06
9.652e-06
1.059e-05
1.085e-05
1.103e-05
1.123e-05
1.146e-05
1.174e-05
1.206e-05
1.243e-05
1.284e-05
1.33e-05
1.381e-05
1.437e-05
1.498e-05
1.563e-05
1.634e-05
1.71e-05
1.791e-05
1.877e-05
1.968e-05
2.063e-05
2.162e-05
2.265e-05
2.371e-05
2.479e-05
2.589e-05
2.699e-05
2.808e-05
2.916e-05
3.02e-05
3.119e-05
5.314e-06
9.651e-06
1.059e-05
1.085e-05
1.103e-05
1.123e-05
1.146e-05
1.174e-05
1.206e-05
1.243e-05
1.284e-05
1.33e-05
1.38e-05
1.436e-05
1.497e-05
1.562e-05
1.633e-05
1.709e-05
1.789e-05
1.875e-05
1.965e-05
2.06e-05
2.159e-05
2.261e-05
2.367e-05
2.474e-05
2.584e-05
2.693e-05
2.802e-05
2.909e-05
3.012e-05
3.111e-05
5.313e-06
9.648e-06
1.059e-05
1.085e-05
1.103e-05
1.122e-05
1.145e-05
1.173e-05
1.205e-05
1.242e-05
1.283e-05
1.329e-05
1.379e-05
1.434e-05
1.495e-05
1.56e-05
1.63e-05
1.706e-05
1.786e-05
1.871e-05
1.96e-05
2.055e-05
2.153e-05
2.254e-05
2.359e-05
2.465e-05
2.573e-05
2.682e-05
2.789e-05
2.895e-05
2.997e-05
3.095e-05
5.31e-06
9.644e-06
1.058e-05
1.084e-05
1.102e-05
1.121e-05
1.145e-05
1.172e-05
1.204e-05
1.24e-05
1.281e-05
1.327e-05
1.377e-05
1.432e-05
1.492e-05
1.557e-05
1.626e-05
1.701e-05
1.781e-05
1.865e-05
1.953e-05
2.046e-05
2.143e-05
2.244e-05
2.347e-05
2.452e-05
2.558e-05
2.665e-05
2.771e-05
2.875e-05
2.975e-05
3.071e-05
5.122e-06
9.303e-06
1.021e-05
1.047e-05
1.066e-05
1.086e-05
1.111e-05
1.14e-05
1.173e-05
1.212e-05
1.255e-05
1.304e-05
1.357e-05
1.416e-05
1.48e-05
1.55e-05
1.626e-05
1.707e-05
1.794e-05
1.886e-05
1.984e-05
2.088e-05
2.196e-05
2.309e-05
2.425e-05
2.545e-05
2.667e-05
2.789e-05
2.912e-05
3.032e-05
3.15e-05
3.262e-05
5.121e-06
9.301e-06
1.021e-05
1.047e-05
1.065e-05
1.086e-05
1.11e-05
1.139e-05
1.173e-05
1.211e-05
1.255e-05
1.303e-05
1.356e-05
1.415e-05
1.479e-05
1.549e-05
1.624e-05
1.705e-05
1.792e-05
1.884e-05
1.982e-05
2.084e-05
2.192e-05
2.304e-05
2.42e-05
2.539e-05
2.66e-05
2.782e-05
2.904e-05
3.024e-05
3.14e-05
3.252e-05
5.12e-06
9.298e-06
1.021e-05
1.047e-05
1.065e-05
1.085e-05
1.11e-05
1.139e-05
1.172e-05
1.21e-05
1.253e-05
1.302e-05
1.355e-05
1.413e-05
1.477e-05
1.546e-05
1.621e-05
1.702e-05
1.788e-05
1.879e-05
1.976e-05
2.078e-05
2.185e-05
2.296e-05
2.41e-05
2.528e-05
2.648e-05
2.768e-05
2.889e-05
3.007e-05
3.122e-05
3.232e-05
5.117e-06
9.294e-06
1.02e-05
1.046e-05
1.064e-05
1.085e-05
1.109e-05
1.138e-05
1.171e-05
1.209e-05
1.252e-05
1.3e-05
1.352e-05
1.411e-05
1.474e-05
1.543e-05
1.617e-05
1.696e-05
1.782e-05
1.872e-05
1.968e-05
2.068e-05
2.174e-05
2.283e-05
2.396e-05
2.512e-05
2.63e-05
2.748e-05
2.866e-05
2.982e-05
3.095e-05
3.203e-05
4.917e-06
8.931e-06
9.81e-06
1.007e-05
1.026e-05
1.047e-05
1.073e-05
1.103e-05
1.138e-05
1.178e-05
1.224e-05
1.275e-05
1.331e-05
1.394e-05
1.462e-05
1.536e-05
1.617e-05
1.704e-05
1.797e-05
1.897e-05
2.004e-05
2.116e-05
2.235e-05
2.359e-05
2.488e-05
2.621e-05
2.757e-05
2.895e-05
3.033e-05
3.169e-05
3.303e-05
3.431e-05
4.916e-06
8.93e-06
9.808e-06
1.007e-05
1.025e-05
1.047e-05
1.072e-05
1.102e-05
1.138e-05
1.178e-05
1.223e-05
1.274e-05
1.33e-05
1.393e-05
1.461e-05
1.535e-05
1.615e-05
1.702e-05
1.795e-05
1.894e-05
2e-05
2.112e-05
2.23e-05
2.354e-05
2.482e-05
2.614e-05
2.749e-05
2.886e-05
3.023e-05
3.159e-05
3.291e-05
3.418e-05
4.914e-06
8.927e-06
9.804e-06
1.006e-05
1.025e-05
1.046e-05
1.072e-05
1.102e-05
1.137e-05
1.177e-05
1.222e-05
1.273e-05
1.329e-05
1.391e-05
1.458e-05
1.532e-05
1.612e-05
1.698e-05
1.79e-05
1.889e-05
1.994e-05
2.105e-05
2.222e-05
2.344e-05
2.47e-05
2.601e-05
2.734e-05
2.869e-05
3.004e-05
3.138e-05
3.268e-05
3.393e-05
4.912e-06
8.922e-06
9.799e-06
1.006e-05
1.024e-05
1.045e-05
1.071e-05
1.101e-05
1.136e-05
1.175e-05
1.22e-05
1.271e-05
1.326e-05
1.388e-05
1.455e-05
1.528e-05
1.607e-05
1.692e-05
1.783e-05
1.881e-05
1.984e-05
2.094e-05
2.209e-05
2.329e-05
2.453e-05
2.582e-05
2.712e-05
2.845e-05
2.977e-05
3.108e-05
3.235e-05
3.358e-05
4.7e-06
8.539e-06
9.384e-06
9.642e-06
9.835e-06
1.006e-05
1.032e-05
1.064e-05
1.101e-05
1.143e-05
1.191e-05
1.244e-05
1.304e-05
1.37e-05
1.442e-05
1.522e-05
1.608e-05
1.701e-05
1.802e-05
1.91e-05
2.026e-05
2.149e-05
2.28e-05
2.417e-05
2.56e-05
2.709e-05
2.862e-05
3.018e-05
3.174e-05
3.33e-05
3.483e-05
3.631e-05
4.699e-06
8.537e-06
9.382e-06
9.64e-06
9.832e-06
1.005e-05
1.032e-05
1.063e-05
1.1e-05
1.142e-05
1.19e-05
1.244e-05
1.303e-05
1.369e-05
1.441e-05
1.52e-05
1.606e-05
1.699e-05
1.799e-05
1.907e-05
2.022e-05
2.145e-05
2.274e-05
2.411e-05
2.553e-05
2.701e-05
2.852e-05
3.007e-05
3.163e-05
3.317e-05
3.469e-05
3.615e-05
4.697e-06
8.534e-06
9.379e-06
9.636e-06
9.828e-06
1.005e-05
1.031e-05
1.063e-05
1.099e-05
1.141e-05
1.189e-05
1.242e-05
1.301e-05
1.366e-05
1.438e-05
1.517e-05
1.602e-05
1.694e-05
1.794e-05
1.9e-05
2.015e-05
2.136e-05
2.264e-05
2.399e-05
2.539e-05
2.685e-05
2.834e-05
2.987e-05
3.14e-05
3.292e-05
3.441e-05
3.585e-05
4.695e-06
8.529e-06
9.373e-06
9.63e-06
9.821e-06
1.004e-05
1.03e-05
1.062e-05
1.098e-05
1.14e-05
1.187e-05
1.24e-05
1.298e-05
1.363e-05
1.434e-05
1.512e-05
1.596e-05
1.687e-05
1.786e-05
1.891e-05
2.003e-05
2.123e-05
2.249e-05
2.381e-05
2.519e-05
2.662e-05
2.808e-05
2.957e-05
3.107e-05
3.255e-05
3.4e-05
3.54e-05
4.472e-06
8.127e-06
8.937e-06
9.193e-06
9.391e-06
9.621e-06
9.898e-06
1.023e-05
1.061e-05
1.106e-05
1.156e-05
1.212e-05
1.275e-05
1.345e-05
1.422e-05
1.506e-05
1.599e-05
1.699e-05
1.808e-05
1.926e-05
2.052e-05
2.187e-05
2.331e-05
2.484e-05
2.644e-05
2.811e-05
2.984e-05
3.162e-05
3.341e-05
3.521e-05
3.698e-05
3.87e-05
4.471e-06
8.125e-06
8.935e-06
9.191e-06
9.389e-06
9.618e-06
9.895e-06
1.022e-05
1.061e-05
1.105e-05
1.155e-05
1.211e-05
1.274e-05
1.343e-05
1.42e-05
1.504e-05
1.596e-05
1.696e-05
1.805e-05
1.922e-05
2.047e-05
2.182e-05
2.325e-05
2.476e-05
2.635e-05
2.801e-05
2.973e-05
3.149e-05
3.327e-05
3.505e-05
3.68e-05
3.85e-05
4.47e-06
8.122e-06
8.931e-06
9.187e-06
9.384e-06
9.612e-06
9.888e-06
1.022e-05
1.06e-05
1.104e-05
1.153e-05
1.209e-05
1.272e-05
1.341e-05
1.417e-05
1.501e-05
1.592e-05
1.691e-05
1.798e-05
1.914e-05
2.038e-05
2.171e-05
2.312e-05
2.462e-05
2.619e-05
2.782e-05
2.951e-05
3.124e-05
3.299e-05
3.473e-05
3.646e-05
3.812e-05
4.467e-06
8.117e-06
8.926e-06
9.18e-06
9.376e-06
9.603e-06
9.878e-06
1.02e-05
1.058e-05
1.102e-05
1.151e-05
1.207e-05
1.269e-05
1.337e-05
1.412e-05
1.495e-05
1.585e-05
1.683e-05
1.789e-05
1.903e-05
2.025e-05
2.156e-05
2.294e-05
2.441e-05
2.594e-05
2.754e-05
2.919e-05
3.088e-05
3.258e-05
3.428e-05
3.595e-05
3.757e-05
4.235e-06
7.696e-06
8.47e-06
8.724e-06
8.928e-06
9.166e-06
9.455e-06
9.799e-06
1.02e-05
1.066e-05
1.119e-05
1.178e-05
1.245e-05
1.318e-05
1.4e-05
1.49e-05
1.589e-05
1.697e-05
1.815e-05
1.943e-05
2.082e-05
2.231e-05
2.39e-05
2.561e-05
2.741e-05
2.93e-05
3.127e-05
3.331e-05
3.539e-05
3.748e-05
3.955e-05
4.157e-05
4.234e-06
7.695e-06
8.468e-06
8.722e-06
8.925e-06
9.163e-06
9.451e-06
9.794e-06
1.019e-05
1.066e-05
1.118e-05
1.177e-05
1.243e-05
1.317e-05
1.398e-05
1.488e-05
1.587e-05
1.694e-05
1.811e-05
1.939e-05
2.076e-05
2.224e-05
2.383e-05
2.552e-05
2.73e-05
2.918e-05
3.114e-05
3.315e-05
3.521e-05
3.728e-05
3.932e-05
4.132e-05
4.232e-06
7.691e-06
8.464e-06
8.717e-06
8.92e-06
9.156e-06
9.443e-06
9.785e-06
1.018e-05
1.064e-05
1.116e-05
1.175e-05
1.241e-05
1.314e-05
1.395e-05
1.484e-05
1.581e-05
1.688e-05
1.804e-05
1.93e-05
2.066e-05
2.212e-05
2.368e-05
2.534e-05
2.71e-05
2.895e-05
3.087e-05
3.285e-05
3.486e-05
3.688e-05
3.889e-05
4.084e-05
4.229e-06
7.686e-06
8.458e-06
8.711e-06
8.912e-06
9.147e-06
9.433e-06
9.772e-06
1.017e-05
1.062e-05
1.114e-05
1.172e-05
1.237e-05
1.31e-05
1.39e-05
1.478e-05
1.574e-05
1.679e-05
1.793e-05
1.917e-05
2.051e-05
2.194e-05
2.347e-05
2.509e-05
2.681e-05
2.861e-05
3.048e-05
3.24e-05
3.436e-05
3.632e-05
3.826e-05
4.014e-05
3.988e-06
7.25e-06
7.985e-06
8.237e-06
8.446e-06
8.692e-06
8.993e-06
9.351e-06
9.77e-06
1.025e-05
1.08e-05
1.143e-05
1.213e-05
1.291e-05
1.378e-05
1.474e-05
1.58e-05
1.697e-05
1.824e-05
1.964e-05
2.116e-05
2.281e-05
2.458e-05
2.649e-05
2.853e-05
3.069e-05
3.295e-05
3.531e-05
3.773e-05
4.019e-05
4.263e-05
4.503e-05
3.987e-06
7.248e-06
7.983e-06
8.234e-06
8.443e-06
8.689e-06
8.989e-06
9.346e-06
9.764e-06
1.025e-05
1.08e-05
1.142e-05
1.211e-05
1.289e-05
1.376e-05
1.471e-05
1.577e-05
1.693e-05
1.82e-05
1.959e-05
2.11e-05
2.273e-05
2.449e-05
2.639e-05
2.84e-05
3.054e-05
3.278e-05
3.511e-05
3.751e-05
3.993e-05
4.235e-05
4.472e-05
3.985e-06
7.245e-06
7.979e-06
8.23e-06
8.437e-06
8.683e-06
8.981e-06
9.336e-06
9.752e-06
1.023e-05
1.078e-05
1.14e-05
1.209e-05
1.286e-05
1.372e-05
1.467e-05
1.571e-05
1.686e-05
1.811e-05
1.948e-05
2.097e-05
2.258e-05
2.432e-05
2.618e-05
2.816e-05
3.026e-05
3.246e-05
3.474e-05
3.708e-05
3.944e-05
4.18e-05
4.411e-05
3.982e-06
7.24e-06
7.973e-06
8.223e-06
8.429e-06
8.673e-06
8.969e-06
9.322e-06
9.735e-06
1.021e-05
1.075e-05
1.136e-05
1.205e-05
1.281e-05
1.366e-05
1.46e-05
1.563e-05
1.676e-05
1.799e-05
1.934e-05
2.079e-05
2.237e-05
2.407e-05
2.588e-05
2.781e-05
2.985e-05
3.198e-05
3.419e-05
3.645e-05
3.874e-05
4.101e-05
4.323e-05
3.733e-06
6.789e-06
7.485e-06
7.734e-06
7.948e-06
8.203e-06
8.514e-06
8.887e-06
9.323e-06
9.828e-06
1.04e-05
1.106e-05
1.18e-05
1.262e-05
1.354e-05
3.732e-06
6.787e-06
7.483e-06
7.731e-06
7.945e-06
8.2e-06
8.51e-06
8.881e-06
9.317e-06
9.82e-06
1.039e-05
1.105e-05
1.178e-05
1.26e-05
3.73e-06
6.784e-06
7.479e-06
7.726e-06
7.939e-06
8.193e-06
8.502e-06
8.871e-06
9.304e-06
9.804e-06
1.038e-05
1.102e-05
1.175e-05
3.727e-06
6.779e-06
7.473e-06
7.719e-06
7.931e-06
8.183e-06
8.49e-06
8.856e-06
9.286e-06
9.781e-06
1.035e-05
1.099e-05
6.6e-06
1.199e-05
1.313e-05
1.339e-05
1.353e-05
1.367e-05
1.383e-05
1.402e-05
1.424e-05
1.448e-05
1.476e-05
1.506e-05
1.538e-05
1.573e-05
1.611e-05
1.651e-05
1.694e-05
1.738e-05
1.784e-05
1.833e-05
1.882e-05
1.933e-05
1.985e-05
2.037e-05
2.09e-05
2.142e-05
2.194e-05
2.245e-05
2.294e-05
2.341e-05
2.386e-05
2.428e-05
6.598e-06
1.198e-05
1.312e-05
1.339e-05
1.353e-05
1.367e-05
1.383e-05
1.402e-05
1.423e-05
1.448e-05
1.475e-05
1.505e-05
1.537e-05
1.572e-05
1.61e-05
1.65e-05
1.692e-05
1.736e-05
1.783e-05
1.831e-05
1.88e-05
1.931e-05
1.982e-05
2.034e-05
2.086e-05
2.139e-05
2.19e-05
2.24e-05
2.289e-05
2.336e-05
2.381e-05
2.423e-05
6.596e-06
1.198e-05
1.312e-05
1.339e-05
1.352e-05
1.366e-05
1.382e-05
1.401e-05
1.422e-05
1.447e-05
1.474e-05
1.504e-05
1.536e-05
1.571e-05
1.608e-05
1.648e-05
1.69e-05
1.734e-05
1.78e-05
1.828e-05
1.877e-05
1.928e-05
1.979e-05
2.031e-05
2.083e-05
2.135e-05
2.186e-05
2.236e-05
2.285e-05
2.331e-05
2.376e-05
2.417e-05
6.593e-06
1.197e-05
1.311e-05
1.338e-05
1.352e-05
1.365e-05
1.381e-05
1.4e-05
1.422e-05
1.446e-05
1.473e-05
1.503e-05
1.535e-05
1.57e-05
1.607e-05
1.647e-05
1.689e-05
1.732e-05
1.778e-05
1.826e-05
1.875e-05
1.925e-05
1.976e-05
2.027e-05
2.079e-05
2.13e-05
2.181e-05
2.231e-05
2.279e-05
2.326e-05
2.37e-05
2.411e-05
6.591e-06
1.197e-05
1.311e-05
1.337e-05
1.351e-05
1.365e-05
1.381e-05
1.399e-05
1.421e-05
1.445e-05
1.472e-05
1.501e-05
1.534e-05
1.568e-05
1.605e-05
1.645e-05
1.687e-05
1.73e-05
1.776e-05
1.823e-05
1.872e-05
1.921e-05
1.972e-05
2.023e-05
2.075e-05
2.126e-05
2.176e-05
2.226e-05
2.274e-05
2.32e-05
2.363e-05
2.404e-05
6.588e-06
1.197e-05
1.31e-05
1.337e-05
1.351e-05
1.364e-05
1.38e-05
1.399e-05
1.42e-05
1.444e-05
1.471e-05
1.5e-05
1.532e-05
1.567e-05
1.604e-05
1.643e-05
1.685e-05
1.728e-05
1.773e-05
1.82e-05
1.869e-05
1.918e-05
1.969e-05
2.019e-05
2.07e-05
2.121e-05
2.171e-05
2.22e-05
2.268e-05
2.314e-05
2.357e-05
2.397e-05
6.586e-06
1.196e-05
1.31e-05
1.336e-05
1.35e-05
1.364e-05
1.379e-05
1.398e-05
1.419e-05
1.443e-05
1.47e-05
1.499e-05
1.531e-05
1.565e-05
1.602e-05
1.641e-05
1.683e-05
1.726e-05
1.771e-05
1.818e-05
1.866e-05
1.915e-05
1.965e-05
2.015e-05
2.066e-05
2.117e-05
2.166e-05
2.215e-05
2.262e-05
2.308e-05
2.35e-05
2.391e-05
6.583e-06
1.196e-05
1.309e-05
1.336e-05
1.349e-05
1.363e-05
1.379e-05
1.397e-05
1.418e-05
1.442e-05
1.469e-05
1.498e-05
1.53e-05
1.564e-05
1.601e-05
1.64e-05
1.681e-05
1.724e-05
1.769e-05
1.815e-05
1.863e-05
1.912e-05
1.961e-05
2.012e-05
2.062e-05
2.112e-05
2.161e-05
2.21e-05
2.257e-05
2.302e-05
2.344e-05
2.384e-05
6.58e-06
1.195e-05
1.308e-05
1.335e-05
1.349e-05
1.362e-05
1.378e-05
1.396e-05
1.418e-05
1.441e-05
1.468e-05
1.497e-05
1.529e-05
1.563e-05
1.599e-05
1.638e-05
1.679e-05
1.722e-05
1.766e-05
1.813e-05
1.86e-05
1.909e-05
1.958e-05
2.008e-05
2.058e-05
2.108e-05
2.157e-05
2.205e-05
2.251e-05
2.296e-05
2.338e-05
2.378e-05
6.577e-06
1.194e-05
1.308e-05
1.334e-05
1.348e-05
1.361e-05
1.377e-05
1.395e-05
1.416e-05
1.44e-05
1.467e-05
1.496e-05
1.527e-05
1.561e-05
1.597e-05
1.636e-05
1.677e-05
1.719e-05
1.764e-05
1.81e-05
1.857e-05
1.906e-05
1.955e-05
2.004e-05
2.054e-05
2.103e-05
2.152e-05
2.2e-05
2.246e-05
2.291e-05
2.333e-05
2.372e-05
6.57e-06
1.193e-05
1.306e-05
1.332e-05
1.346e-05
1.359e-05
1.375e-05
1.393e-05
1.414e-05
1.438e-05
1.464e-05
1.493e-05
1.524e-05
1.558e-05
1.594e-05
1.633e-05
1.673e-05
1.716e-05
1.76e-05
1.806e-05
1.853e-05
1.901e-05
1.95e-05
1.999e-05
2.048e-05
2.097e-05
2.146e-05
2.193e-05
2.239e-05
2.283e-05
2.325e-05
2.364e-05