/*--------------------------------*- C++ -*----------------------------------*\
  =========                 |
  \\      /  F ield         | OpenFOAM: The Open Source CFD Toolbox
   \\    /   O peration     | Website:  https://openfoam.org
    \\  /    A nd           | Version:  6
     \\/     M anipulation  |
\*---------------------------------------------------------------------------*/
FoamFile
{
    version     2.0;
    format      ascii;
    class       volScalarField;
    location    "15";
    object      T;
}
// * * * * * * * * * * * * * * * * * * * * * * * * * * * * * * * * * * * * * //

dimensions      [0 0 0 1 0 0 0];

internalField   nonuniform List<scalar> 
16128
(
7.347
7.346
7.343
7.338
7.332
7.325
7.317
7.307
7.295
7.283
7.269
7.253
7.237
7.219
7.199
7.178
7.156
7.132
7.107
7.08
7.052
7.022
6.99
6.957
6.921
6.884
6.844
6.801
6.755
6.704
6.648
6.58
7.342
7.341
7.338
7.334
7.328
7.321
7.312
7.302
7.291
7.278
7.264
7.249
7.232
7.214
7.195
7.174
7.151
7.127
7.102
7.075
7.047
7.016
6.985
6.951
6.915
6.877
6.837
6.793
6.746
6.694
6.637
6.569
7.333
7.332
7.329
7.324
7.319
7.312
7.303
7.293
7.282
7.269
7.255
7.24
7.223
7.205
7.185
7.164
7.142
7.118
7.092
7.065
7.036
7.006
6.974
6.939
6.903
6.864
6.822
6.777
6.729
6.676
6.617
6.548
7.32
7.318
7.315
7.311
7.305
7.298
7.289
7.279
7.268
7.256
7.242
7.226
7.209
7.191
7.172
7.15
7.128
7.104
7.078
7.05
7.021
6.99
6.957
6.922
6.885
6.845
6.802
6.756
6.706
6.65
6.589
6.52
7.337
7.335
7.332
7.327
7.321
7.314
7.305
7.295
7.284
7.271
7.257
7.241
7.224
7.206
7.186
7.164
7.142
7.117
7.091
7.064
7.034
7.003
6.97
6.935
6.897
6.857
6.813
6.765
6.712
6.65
6.577
6.486
7.332
7.33
7.327
7.323
7.317
7.31
7.301
7.291
7.279
7.267
7.252
7.237
7.22
7.201
7.181
7.16
7.137
7.112
7.086
7.059
7.029
6.998
6.965
6.929
6.891
6.85
6.806
6.758
6.704
6.642
6.57
6.48
7.323
7.321
7.318
7.314
7.308
7.301
7.292
7.282
7.27
7.258
7.243
7.228
7.211
7.192
7.172
7.151
7.128
7.103
7.077
7.049
7.019
6.988
6.954
6.918
6.879
6.838
6.793
6.744
6.689
6.627
6.555
6.468
7.309
7.308
7.305
7.3
7.294
7.287
7.278
7.268
7.257
7.244
7.23
7.214
7.197
7.179
7.159
7.137
7.114
7.089
7.063
7.035
7.004
6.972
6.938
6.902
6.863
6.82
6.775
6.725
6.669
6.607
6.536
6.453
7.316
7.314
7.311
7.306
7.3
7.292
7.283
7.273
7.261
7.248
7.233
7.217
7.199
7.18
7.159
7.137
7.113
7.087
7.06
7.03
6.999
6.966
6.93
6.891
6.849
6.804
6.754
6.698
6.635
6.562
6.475
6.371
7.311
7.31
7.306
7.302
7.296
7.288
7.279
7.269
7.257
7.243
7.229
7.213
7.195
7.176
7.155
7.132
7.108
7.083
7.055
7.026
6.994
6.961
6.925
6.886
6.844
6.798
6.748
6.692
6.629
6.557
6.471
6.369
7.302
7.301
7.297
7.293
7.287
7.279
7.27
7.26
7.248
7.235
7.22
7.204
7.186
7.167
7.146
7.123
7.099
7.074
7.046
7.016
6.985
6.951
6.915
6.876
6.833
6.788
6.737
6.681
6.618
6.547
6.464
6.366
7.289
7.287
7.284
7.279
7.273
7.266
7.257
7.246
7.235
7.221
7.207
7.19
7.173
7.153
7.133
7.11
7.086
7.06
7.032
7.003
6.971
6.937
6.9
6.861
6.818
6.772
6.721
6.666
6.603
6.533
6.453
6.361
7.285
7.283
7.28
7.275
7.268
7.26
7.251
7.24
7.228
7.214
7.198
7.181
7.162
7.142
7.12
7.096
7.071
7.043
7.014
6.982
6.948
6.911
6.872
6.829
6.782
6.731
6.674
6.611
6.539
6.457
6.362
6.252
7.281
7.279
7.276
7.271
7.264
7.256
7.247
7.236
7.223
7.209
7.194
7.177
7.158
7.138
7.116
7.092
7.066
7.039
7.009
6.978
6.943
6.907
6.867
6.824
6.778
6.726
6.67
6.607
6.535
6.454
6.361
6.254
7.272
7.27
7.267
7.262
7.255
7.248
7.238
7.227
7.215
7.201
7.185
7.168
7.15
7.129
7.107
7.083
7.058
7.03
7.001
6.969
6.935
6.898
6.858
6.815
6.769
6.717
6.661
6.598
6.528
6.449
6.359
6.256
7.259
7.257
7.254
7.249
7.242
7.234
7.225
7.214
7.202
7.188
7.172
7.155
7.137
7.116
7.094
7.071
7.045
7.017
6.988
6.956
6.922
6.885
6.845
6.802
6.755
6.704
6.649
6.587
6.518
6.441
6.355
6.259
7.245
7.243
7.24
7.234
7.227
7.219
7.209
7.197
7.184
7.169
7.153
7.135
7.115
7.093
7.069
7.044
7.016
6.987
6.955
6.92
6.883
6.843
6.799
6.752
6.7
6.644
6.581
6.511
6.433
6.345
6.246
6.136
7.241
7.239
7.235
7.23
7.223
7.215
7.205
7.193
7.18
7.165
7.149
7.131
7.111
7.089
7.065
7.04
7.012
6.983
6.951
6.916
6.879
6.839
6.796
6.748
6.697
6.64
6.578
6.508
6.431
6.344
6.247
6.139
7.233
7.231
7.227
7.222
7.215
7.206
7.196
7.185
7.172
7.157
7.14
7.122
7.102
7.081
7.057
7.032
7.004
6.975
6.943
6.908
6.871
6.831
6.788
6.741
6.689
6.633
6.571
6.503
6.427
6.342
6.249
6.145
7.22
7.218
7.214
7.209
7.202
7.194
7.184
7.172
7.159
7.144
7.128
7.11
7.09
7.069
7.045
7.02
6.992
6.963
6.931
6.896
6.859
6.819
6.776
6.729
6.678
6.623
6.562
6.495
6.421
6.339
6.25
6.153
7.197
7.195
7.191
7.185
7.178
7.169
7.158
7.146
7.131
7.116
7.098
7.079
7.057
7.034
7.009
6.981
6.952
6.92
6.885
6.848
6.807
6.763
6.716
6.664
6.608
6.546
6.479
6.404
6.322
6.231
6.131
6.023
7.193
7.191
7.187
7.181
7.174
7.165
7.154
7.142
7.127
7.112
7.094
7.075
7.053
7.03
7.005
6.978
6.948
6.916
6.881
6.844
6.804
6.76
6.713
6.661
6.605
6.544
6.476
6.402
6.321
6.231
6.133
6.027
7.185
7.182
7.178
7.173
7.166
7.157
7.146
7.134
7.12
7.104
7.086
7.067
7.046
7.023
6.997
6.97
6.94
6.908
6.874
6.837
6.797
6.753
6.706
6.655
6.599
6.539
6.472
6.399
6.32
6.232
6.138
6.036
7.172
7.17
7.166
7.161
7.153
7.144
7.134
7.122
7.108
7.092
7.074
7.055
7.034
7.011
6.986
6.959
6.929
6.897
6.863
6.826
6.786
6.743
6.696
6.646
6.591
6.531
6.466
6.395
6.317
6.233
6.143
6.046
7.141
7.138
7.134
7.128
7.12
7.11
7.099
7.086
7.071
7.054
7.035
7.014
6.991
6.966
6.939
6.91
6.878
6.843
6.806
6.766
6.722
6.675
6.624
6.569
6.509
6.443
6.372
6.294
6.209
6.117
6.019
5.914
7.137
7.134
7.13
7.124
7.116
7.106
7.095
7.082
7.067
7.05
7.031
7.01
6.988
6.963
6.936
6.906
6.874
6.84
6.803
6.763
6.719
6.672
6.621
6.566
6.506
6.441
6.37
6.293
6.21
6.119
6.022
5.919
7.129
7.127
7.122
7.116
7.108
7.099
7.087
7.074
7.059
7.043
7.024
7.003
6.98
6.956
6.929
6.899
6.868
6.833
6.796
6.756
6.713
6.666
6.616
6.561
6.502
6.438
6.368
6.292
6.21
6.122
6.028
5.929
7.117
7.115
7.111
7.105
7.097
7.087
7.076
7.063
7.048
7.031
7.013
6.992
6.97
6.945
6.918
6.889
6.857
6.823
6.787
6.747
6.704
6.658
6.608
6.554
6.496
6.432
6.364
6.29
6.211
6.126
6.035
5.941
7.078
7.075
7.07
7.064
7.055
7.045
7.033
7.019
7.003
6.985
6.964
6.942
6.918
6.891
6.862
6.831
6.797
6.76
6.72
6.677
6.63
6.58
6.526
6.468
6.404
6.336
6.262
6.183
6.097
6.006
5.91
5.809
7.074
7.071
7.067
7.06
7.052
7.041
7.029
7.015
6.999
6.981
6.961
6.939
6.915
6.888
6.859
6.828
6.794
6.757
6.717
6.674
6.628
6.578
6.524
6.466
6.403
6.335
6.262
6.183
6.099
6.009
5.914
5.815
7.067
7.064
7.059
7.053
7.044
7.034
7.022
7.008
6.992
6.974
6.954
6.932
6.908
6.881
6.853
6.821
6.787
6.751
6.711
6.669
6.623
6.573
6.52
6.462
6.4
6.333
6.261
6.183
6.101
6.013
5.92
5.825
7.056
7.053
7.048
7.042
7.033
7.023
7.011
6.997
6.981
6.964
6.944
6.922
6.898
6.871
6.843
6.812
6.778
6.742
6.703
6.661
6.615
6.566
6.513
6.457
6.395
6.33
6.259
6.184
6.103
6.019
5.93
5.838
7.009
7.006
7.001
6.994
6.985
6.974
6.961
6.946
6.929
6.909
6.888
6.864
6.838
6.81
6.779
6.746
6.709
6.67
6.628
6.583
6.534
6.481
6.424
6.363
6.298
6.228
6.152
6.072
5.987
5.898
5.804
5.708
7.006
7.003
6.997
6.99
6.981
6.97
6.957
6.942
6.925
6.906
6.885
6.861
6.835
6.807
6.776
6.743
6.707
6.668
6.626
6.58
6.532
6.479
6.423
6.362
6.297
6.227
6.153
6.073
5.989
5.9
5.808
5.714
6.999
6.996
6.99
6.983
6.975
6.964
6.951
6.936
6.919
6.9
6.878
6.855
6.829
6.801
6.77
6.737
6.701
6.663
6.621
6.576
6.527
6.475
6.419
6.359
6.295
6.226
6.153
6.075
5.992
5.906
5.816
5.724
6.988
6.985
6.98
6.973
6.964
6.953
6.94
6.926
6.909
6.89
6.869
6.845
6.82
6.792
6.762
6.729
6.693
6.655
6.613
6.569
6.521
6.47
6.415
6.356
6.292
6.225
6.153
6.077
5.997
5.913
5.826
5.738
6.935
6.932
6.926
6.919
6.909
6.897
6.884
6.868
6.849
6.829
6.806
6.781
6.754
6.724
6.691
6.656
6.618
6.577
6.532
6.485
6.434
6.379
6.32
6.257
6.19
6.119
6.043
5.963
5.879
5.792
5.702
5.611
6.932
6.929
6.923
6.916
6.906
6.894
6.88
6.865
6.846
6.826
6.803
6.778
6.751
6.721
6.689
6.653
6.615
6.574
6.53
6.483
6.432
6.377
6.319
6.256
6.19
6.119
6.044
5.965
5.882
5.795
5.706
5.617
6.925
6.922
6.917
6.909
6.9
6.888
6.874
6.858
6.84
6.82
6.798
6.773
6.746
6.716
6.684
6.649
6.611
6.57
6.526
6.479
6.429
6.374
6.317
6.255
6.189
6.119
6.045
5.967
5.886
5.801
5.714
5.627
6.915
6.912
6.907
6.899
6.89
6.878
6.865
6.849
6.831
6.811
6.789
6.764
6.737
6.708
6.676
6.641
6.604
6.563
6.52
6.473
6.423
6.37
6.313
6.252
6.188
6.119
6.047
5.971
5.892
5.809
5.725
5.641
6.857
6.854
6.848
6.84
6.829
6.817
6.802
6.786
6.766
6.745
6.721
6.694
6.666
6.634
6.6
6.563
6.523
6.48
6.434
6.384
6.331
6.275
6.215
6.15
6.083
6.011
5.935
5.856
5.774
5.69
5.603
5.517
6.854
6.851
6.845
6.837
6.826
6.814
6.8
6.783
6.764
6.742
6.718
6.692
6.663
6.632
6.597
6.561
6.521
6.478
6.432
6.383
6.33
6.274
6.214
6.15
6.083
6.011
5.936
5.858
5.777
5.693
5.608
5.522
6.848
6.844
6.839
6.831
6.821
6.808
6.794
6.777
6.758
6.737
6.713
6.687
6.658
6.627
6.593
6.556
6.517
6.474
6.429
6.38
6.327
6.272
6.212
6.15
6.083
6.013
5.939
5.861
5.781
5.699
5.616
5.532
6.839
6.835
6.829
6.822
6.812
6.799
6.785
6.768
6.749
6.728
6.705
6.679
6.651
6.62
6.586
6.55
6.511
6.469
6.423
6.375
6.324
6.269
6.21
6.148
6.083
6.014
5.942
5.866
5.788
5.708
5.627
5.546
6.776
6.772
6.766
6.757
6.746
6.733
6.718
6.7
6.68
6.657
6.632
6.605
6.574
6.541
6.506
6.467
6.425
6.381
6.333
6.282
6.228
6.17
6.109
6.044
5.976
5.904
5.829
5.751
5.671
5.59
5.507
5.425
6.773
6.769
6.763
6.755
6.744
6.731
6.715
6.698
6.677
6.655
6.63
6.602
6.572
6.539
6.504
6.465
6.424
6.379
6.332
6.281
6.227
6.169
6.108
6.044
5.976
5.905
5.831
5.754
5.674
5.593
5.511
5.43
6.767
6.764
6.757
6.749
6.738
6.725
6.71
6.692
6.672
6.65
6.625
6.598
6.568
6.535
6.5
6.461
6.42
6.376
6.329
6.279
6.225
6.168
6.108
6.044
5.977
5.907
5.833
5.758
5.679
5.6
5.52
5.44
6.759
6.755
6.749
6.741
6.73
6.717
6.702
6.684
6.665
6.642
6.618
6.591
6.561
6.529
6.494
6.456
6.415
6.372
6.325
6.275
6.222
6.166
6.107
6.044
5.978
5.909
5.837
5.763
5.687
5.609
5.531
5.454
6.692
6.688
6.681
6.672
6.661
6.647
6.631
6.613
6.591
6.568
6.542
6.513
6.481
6.447
6.41
6.37
6.327
6.281
6.232
6.179
6.124
6.065
6.003
5.938
5.87
5.799
5.725
5.649
5.571
5.492
5.413
5.336
6.689
6.685
6.679
6.67
6.659
6.645
6.629
6.61
6.589
6.566
6.539
6.511
6.479
6.445
6.408
6.368
6.325
6.28
6.231
6.179
6.123
6.065
6.003
5.939
5.871
5.8
5.727
5.651
5.574
5.496
5.418
5.341
6.684
6.68
6.674
6.665
6.654
6.64
6.624
6.605
6.584
6.561
6.535
6.507
6.475
6.441
6.405
6.365
6.323
6.277
6.229
6.177
6.122
6.065
6.004
5.939
5.872
5.802
5.73
5.656
5.58
5.503
5.426
5.35
6.676
6.672
6.666
6.657
6.646
6.632
6.617
6.598
6.578
6.554
6.529
6.5
6.469
6.436
6.399
6.36
6.318
6.273
6.226
6.175
6.121
6.064
6.004
5.94
5.874
5.806
5.735
5.662
5.588
5.513
5.438
5.364
6.606
6.602
6.595
6.586
6.574
6.56
6.543
6.523
6.501
6.477
6.449
6.419
6.387
6.351
6.313
6.272
6.227
6.18
6.13
6.077
6.02
5.961
5.899
5.834
5.766
5.695
5.623
5.548
5.473
5.397
5.322
5.248
6.604
6.6
6.593
6.584
6.572
6.557
6.54
6.521
6.499
6.475
6.447
6.418
6.385
6.35
6.311
6.27
6.226
6.179
6.129
6.076
6.02
5.961
5.899
5.834
5.767
5.697
5.625
5.551
5.476
5.401
5.326
5.253
6.599
6.595
6.588
6.579
6.567
6.553
6.536
6.517
6.495
6.471
6.444
6.414
6.382
6.346
6.308
6.268
6.224
6.177
6.128
6.075
6.02
5.961
5.9
5.836
5.769
5.7
5.628
5.556
5.482
5.408
5.334
5.262
6.592
6.588
6.581
6.572
6.56
6.546
6.529
6.51
6.489
6.465
6.438
6.408
6.376
6.342
6.304
6.264
6.221
6.175
6.126
6.074
6.019
5.961
5.901
5.838
5.772
5.704
5.634
5.563
5.49
5.418
5.346
5.276
6.52
6.515
6.508
6.498
6.486
6.471
6.453
6.433
6.41
6.385
6.356
6.325
6.291
6.255
6.215
6.173
6.128
6.08
6.028
5.974
5.918
5.858
5.795
5.73
5.663
5.593
5.522
5.45
5.376
5.303
5.231
5.161
6.518
6.513
6.506
6.496
6.484
6.469
6.451
6.431
6.408
6.383
6.355
6.324
6.29
6.254
6.214
6.172
6.127
6.079
6.028
5.974
5.918
5.858
5.796
5.731
5.664
5.595
5.524
5.452
5.38
5.307
5.236
5.166
6.513
6.509
6.502
6.492
6.48
6.465
6.447
6.427
6.405
6.379
6.351
6.321
6.287
6.251
6.212
6.17
6.125
6.078
6.027
5.974
5.918
5.859
5.797
5.733
5.667
5.599
5.529
5.457
5.386
5.314
5.244
5.175
6.507
6.502
6.495
6.485
6.473
6.459
6.441
6.421
6.399
6.374
6.346
6.316
6.283
6.247
6.208
6.167
6.123
6.076
6.026
5.973
5.918
5.86
5.799
5.736
5.671
5.603
5.535
5.465
5.395
5.325
5.256
5.189
6.432
6.428
6.42
6.41
6.397
6.382
6.363
6.342
6.319
6.292
6.263
6.231
6.196
6.159
6.118
6.075
6.029
5.979
5.928
5.873
5.816
5.756
5.693
5.628
5.562
5.493
5.423
5.353
5.282
5.212
5.143
5.076
6.43
6.426
6.418
6.408
6.395
6.38
6.362
6.341
6.317
6.291
6.262
6.23
6.195
6.158
6.117
6.074
6.028
5.979
5.927
5.873
5.816
5.756
5.694
5.63
5.563
5.495
5.426
5.356
5.285
5.215
5.147
5.081
6.426
6.422
6.414
6.404
6.391
6.376
6.358
6.337
6.314
6.288
6.259
6.227
6.193
6.155
6.115
6.073
6.027
5.978
5.927
5.873
5.817
5.757
5.696
5.632
5.566
5.499
5.43
5.361
5.292
5.223
5.155
5.09
6.42
6.416
6.408
6.398
6.386
6.37
6.353
6.332
6.309
6.283
6.254
6.223
6.189
6.152
6.113
6.07
6.025
5.977
5.927
5.873
5.817
5.759
5.698
5.636
5.571
5.505
5.437
5.369
5.301
5.233
5.167
5.103
6.345
6.34
6.332
6.322
6.308
6.292
6.273
6.252
6.227
6.2
6.17
6.137
6.101
6.063
6.021
5.977
5.93
5.88
5.828
5.772
5.715
5.655
5.592
5.528
5.462
5.395
5.326
5.257
5.189
5.121
5.055
4.991
6.343
6.338
6.33
6.32
6.307
6.291
6.272
6.25
6.226
6.199
6.169
6.136
6.1
6.062
6.021
5.976
5.93
5.88
5.828
5.773
5.715
5.656
5.593
5.529
5.464
5.397
5.329
5.26
5.192
5.125
5.059
4.996
6.34
6.335
6.327
6.317
6.303
6.287
6.269
6.247
6.223
6.196
6.166
6.134
6.098
6.06
6.019
5.975
5.929
5.88
5.828
5.773
5.716
5.657
5.596
5.532
5.467
5.401
5.334
5.266
5.199
5.132
5.067
5.005
6.334
6.329
6.322
6.311
6.298
6.282
6.264
6.243
6.219
6.192
6.163
6.13
6.095
6.058
6.017
5.974
5.928
5.879
5.828
5.774
5.718
5.66
5.599
5.536
5.472
5.407
5.341
5.274
5.208
5.143
5.079
5.018
6.258
6.253
6.245
6.234
6.22
6.203
6.184
6.162
6.136
6.108
6.077
6.044
6.007
5.967
5.925
5.88
5.832
5.782
5.729
5.673
5.615
5.555
5.493
5.429
5.364
5.297
5.23
5.163
5.097
5.031
4.968
4.907
6.256
6.251
6.243
6.232
6.218
6.202
6.183
6.16
6.135
6.107
6.076
6.043
6.006
5.967
5.925
5.88
5.832
5.782
5.729
5.674
5.616
5.556
5.494
5.431
5.366
5.3
5.233
5.166
5.1
5.035
4.972
4.911
6.253
6.248
6.24
6.229
6.215
6.199
6.18
6.158
6.133
6.105
6.074
6.041
6.005
5.966
5.924
5.879
5.832
5.782
5.73
5.675
5.618
5.558
5.497
5.434
5.37
5.304
5.238
5.172
5.107
5.043
4.98
4.92
6.248
6.243
6.235
6.224
6.211
6.195
6.176
6.154
6.129
6.101
6.071
6.038
6.002
5.964
5.922
5.878
5.832
5.782
5.73
5.676
5.62
5.561
5.501
5.439
5.375
5.311
5.246
5.181
5.117
5.054
4.992
4.933
6.171
6.166
6.158
6.146
6.132
6.115
6.095
6.072
6.046
6.017
5.986
5.951
5.913
5.873
5.83
5.784
5.736
5.684
5.631
5.575
5.517
5.457
5.395
5.331
5.267
5.202
5.136
5.07
5.006
4.942
4.881
4.823
6.17
6.165
6.156
6.145
6.131
6.114
6.094
6.071
6.045
6.016
5.985
5.95
5.913
5.873
5.83
5.784
5.736
5.685
5.631
5.576
5.518
5.458
5.396
5.333
5.269
5.204
5.139
5.074
5.009
4.946
4.885
4.827
6.167
6.162
6.154
6.142
6.128
6.111
6.091
6.069
6.043
6.015
5.983
5.949
5.912
5.872
5.829
5.784
5.736
5.685
5.632
5.577
5.52
5.46
5.399
5.337
5.273
5.209
5.144
5.08
5.016
4.954
4.894
4.836
6.163
6.157
6.149
6.138
6.124
6.107
6.088
6.065
6.04
6.012
5.981
5.947
5.91
5.871
5.828
5.784
5.736
5.686
5.634
5.579
5.523
5.464
5.404
5.342
5.279
5.216
5.152
5.089
5.026
4.965
4.906
4.849
6.086
6.08
6.072
6.06
6.046
6.028
6.007
5.984
5.957
5.927
5.895
5.859
5.821
5.78
5.736
5.689
5.64
5.588
5.534
5.478
5.42
5.36
5.298
5.235
5.171
5.107
5.042
4.978
4.915
4.854
4.795
4.739
6.084
6.079
6.071
6.059
6.044
6.027
6.006
5.983
5.956
5.927
5.894
5.859
5.821
5.78
5.736
5.689
5.64
5.589
5.535
5.479
5.421
5.361
5.3
5.237
5.174
5.109
5.045
4.982
4.919
4.858
4.799
4.743
6.082
6.077
6.068
6.057
6.042
6.025
6.004
5.981
5.954
5.925
5.893
5.858
5.82
5.779
5.736
5.69
5.641
5.59
5.536
5.481
5.423
5.364
5.303
5.241
5.178
5.115
5.051
4.988
4.926
4.866
4.807
4.752
6.078
6.073
6.064
6.053
6.039
6.021
6.001
5.978
5.952
5.923
5.891
5.856
5.819
5.778
5.735
5.69
5.642
5.591
5.539
5.484
5.427
5.368
5.308
5.247
5.185
5.122
5.06
4.997
4.936
4.877
4.82
4.765
7.301
7.3
7.297
7.292
7.287
7.279
7.271
7.261
7.25
7.237
7.223
7.208
7.191
7.173
7.153
7.132
7.109
7.085
7.059
7.031
7.002
6.97
6.937
6.901
6.863
6.822
6.778
6.73
6.678
6.621
6.558
6.487
7.278
7.276
7.273
7.269
7.263
7.256
7.248
7.238
7.227
7.214
7.2
7.185
7.168
7.15
7.13
7.109
7.086
7.061
7.035
7.007
6.977
6.945
6.911
6.875
6.836
6.794
6.749
6.701
6.648
6.591
6.527
6.458
7.249
7.248
7.245
7.241
7.235
7.228
7.219
7.21
7.199
7.186
7.172
7.157
7.14
7.122
7.102
7.081
7.058
7.033
7.007
6.979
6.949
6.916
6.882
6.845
6.806
6.764
6.718
6.669
6.616
6.559
6.498
6.431
7.216
7.214
7.211
7.207
7.202
7.195
7.186
7.176
7.165
7.153
7.139
7.124
7.107
7.089
7.069
7.048
7.025
7
6.974
6.946
6.916
6.883
6.849
6.812
6.772
6.73
6.684
6.636
6.584
6.528
6.468
6.405
7.177
7.175
7.172
7.168
7.163
7.156
7.147
7.138
7.127
7.114
7.101
7.086
7.069
7.051
7.031
7.01
6.987
6.963
6.937
6.908
6.878
6.846
6.812
6.775
6.735
6.693
6.648
6.601
6.55
6.496
6.439
6.379
7.132
7.131
7.128
7.123
7.118
7.111
7.103
7.093
7.083
7.07
7.057
7.042
7.025
7.007
6.988
6.967
6.945
6.92
6.894
6.866
6.836
6.804
6.77
6.734
6.695
6.654
6.61
6.563
6.514
6.463
6.409
6.353
7.081
7.08
7.077
7.073
7.067
7.06
7.052
7.043
7.032
7.02
7.007
6.992
6.976
6.958
6.939
6.919
6.896
6.872
6.847
6.819
6.79
6.759
6.725
6.689
6.652
6.611
6.569
6.524
6.477
6.428
6.377
6.326
7.024
7.022
7.019
7.015
7.01
7.003
6.996
6.986
6.976
6.964
6.951
6.936
6.92
6.903
6.884
6.864
6.842
6.819
6.794
6.767
6.738
6.708
6.675
6.641
6.604
6.566
6.525
6.482
6.438
6.392
6.344
6.297
6.959
6.958
6.955
6.951
6.946
6.94
6.932
6.923
6.912
6.901
6.888
6.874
6.858
6.841
6.823
6.803
6.782
6.759
6.735
6.709
6.681
6.652
6.62
6.587
6.552
6.516
6.477
6.437
6.395
6.352
6.309
6.265
6.888
6.886
6.884
6.88
6.875
6.868
6.861
6.852
6.842
6.83
6.818
6.804
6.789
6.772
6.754
6.735
6.715
6.693
6.669
6.644
6.618
6.589
6.56
6.528
6.495
6.461
6.425
6.387
6.349
6.31
6.27
6.23
6.808
6.807
6.804
6.8
6.795
6.789
6.782
6.773
6.763
6.752
6.74
6.726
6.711
6.695
6.678
6.66
6.64
6.619
6.596
6.572
6.547
6.52
6.492
6.463
6.432
6.4
6.367
6.332
6.297
6.262
6.226
6.191
6.72
6.719
6.716
6.713
6.708
6.702
6.694
6.686
6.676
6.665
6.653
6.64
6.626
6.61
6.593
6.575
6.556
6.536
6.515
6.492
6.468
6.443
6.417
6.39
6.361
6.332
6.302
6.271
6.24
6.208
6.177
6.146
6.624
6.623
6.62
6.617
6.612
6.606
6.598
6.59
6.581
6.57
6.558
6.545
6.531
6.516
6.5
6.483
6.464
6.445
6.424
6.403
6.381
6.357
6.333
6.308
6.282
6.256
6.229
6.202
6.174
6.147
6.12
6.094
6.524
6.523
6.52
6.516
6.512
6.506
6.498
6.49
6.481
6.47
6.458
6.446
6.432
6.417
6.401
6.384
6.367
6.348
6.329
6.308
6.287
6.265
6.243
6.22
6.197
6.173
6.15
6.126
6.102
6.079
6.057
6.035
6.446
6.444
6.442
6.438
6.433
6.427
6.42
6.412
6.402
6.392
6.38
6.367
6.354
6.339
6.323
6.307
6.289
6.271
6.252
6.233
6.212
6.192
6.171
6.149
6.128
6.106
6.085
6.063
6.042
6.022
6.003
5.985
7.291
7.289
7.286
7.282
7.276
7.269
7.26
7.25
7.239
7.226
7.212
7.196
7.179
7.16
7.14
7.119
7.095
7.071
7.044
7.016
6.985
6.953
6.918
6.881
6.841
6.798
6.752
6.701
6.645
6.583
6.514
6.435
7.268
7.266
7.263
7.259
7.253
7.246
7.237
7.227
7.216
7.203
7.189
7.173
7.156
7.138
7.117
7.096
7.072
7.047
7.021
6.992
6.961
6.929
6.894
6.856
6.816
6.772
6.725
6.674
6.619
6.558
6.49
6.416
7.24
7.238
7.235
7.231
7.225
7.218
7.209
7.199
7.188
7.175
7.161
7.146
7.128
7.11
7.09
7.068
7.045
7.02
6.993
6.964
6.933
6.9
6.865
6.827
6.787
6.743
6.696
6.645
6.59
6.531
6.466
6.396
7.206
7.205
7.202
7.197
7.192
7.185
7.176
7.166
7.155
7.142
7.128
7.113
7.096
7.077
7.057
7.036
7.012
6.987
6.961
6.932
6.901
6.868
6.833
6.795
6.754
6.711
6.664
6.614
6.56
6.502
6.441
6.375
7.168
7.166
7.163
7.159
7.153
7.146
7.138
7.128
7.117
7.104
7.09
7.075
7.058
7.04
7.02
6.998
6.975
6.95
6.924
6.895
6.864
6.831
6.796
6.759
6.719
6.676
6.63
6.581
6.528
6.473
6.415
6.354
7.123
7.122
7.119
7.114
7.109
7.102
7.094
7.084
7.073
7.061
7.047
7.032
7.015
6.997
6.977
6.956
6.933
6.908
6.882
6.854
6.823
6.791
6.756
6.719
6.68
6.637
6.593
6.545
6.495
6.442
6.387
6.331
7.072
7.071
7.068
7.064
7.058
7.052
7.043
7.034
7.023
7.011
6.997
6.982
6.966
6.948
6.929
6.908
6.885
6.861
6.835
6.807
6.777
6.746
6.712
6.676
6.637
6.596
6.553
6.508
6.46
6.41
6.359
6.306
7.015
7.014
7.011
7.007
7.002
6.995
6.987
6.978
6.967
6.955
6.942
6.927
6.911
6.894
6.875
6.854
6.832
6.808
6.783
6.756
6.727
6.696
6.663
6.628
6.591
6.552
6.51
6.467
6.422
6.375
6.328
6.279
6.952
6.95
6.947
6.943
6.938
6.932
6.924
6.915
6.904
6.892
6.879
6.865
6.849
6.832
6.814
6.794
6.772
6.749
6.725
6.698
6.67
6.64
6.609
6.575
6.54
6.503
6.464
6.423
6.381
6.338
6.294
6.25
6.88
6.879
6.876
6.872
6.867
6.861
6.853
6.844
6.834
6.823
6.81
6.796
6.781
6.764
6.746
6.727
6.706
6.684
6.66
6.635
6.608
6.579
6.549
6.517
6.484
6.449
6.413
6.375
6.336
6.297
6.257
6.217
6.801
6.8
6.797
6.794
6.789
6.782
6.775
6.766
6.756
6.745
6.732
6.719
6.704
6.688
6.67
6.652
6.632
6.61
6.588
6.563
6.538
6.511
6.483
6.453
6.422
6.39
6.356
6.322
6.286
6.25
6.215
6.179
6.714
6.713
6.71
6.706
6.701
6.695
6.688
6.679
6.67
6.659
6.647
6.633
6.619
6.603
6.586
6.568
6.549
6.529
6.507
6.484
6.46
6.435
6.409
6.381
6.353
6.323
6.293
6.262
6.23
6.198
6.167
6.136
6.619
6.617
6.615
6.611
6.606
6.6
6.593
6.584
6.575
6.564
6.552
6.539
6.525
6.51
6.494
6.476
6.458
6.438
6.418
6.396
6.374
6.35
6.326
6.301
6.275
6.248
6.221
6.194
6.166
6.139
6.112
6.085
6.519
6.518
6.515
6.512
6.507
6.501
6.493
6.485
6.476
6.465
6.453
6.44
6.427
6.412
6.396
6.379
6.361
6.342
6.323
6.303
6.281
6.26
6.237
6.214
6.191
6.167
6.143
6.119
6.096
6.073
6.05
6.028
6.441
6.44
6.438
6.434
6.429
6.423
6.416
6.407
6.398
6.387
6.376
6.363
6.349
6.334
6.319
6.302
6.285
6.266
6.247
6.228
6.207
6.187
6.166
6.144
6.123
6.101
6.079
6.058
6.037
6.017
5.997
5.979
7.271
7.269
7.266
7.261
7.255
7.248
7.239
7.229
7.217
7.204
7.189
7.173
7.155
7.136
7.115
7.092
7.068
7.042
7.014
6.984
6.952
6.918
6.881
6.842
6.799
6.752
6.702
6.646
6.585
6.517
6.44
6.355
7.248
7.246
7.243
7.239
7.233
7.225
7.216
7.206
7.194
7.181
7.166
7.15
7.133
7.113
7.093
7.07
7.046
7.02
6.992
6.962
6.93
6.895
6.858
6.818
6.775
6.729
6.679
6.624
6.564
6.498
6.425
6.346
7.22
7.219
7.216
7.211
7.205
7.198
7.189
7.179
7.167
7.154
7.139
7.123
7.106
7.086
7.066
7.043
7.019
6.993
6.965
6.935
6.903
6.868
6.831
6.791
6.749
6.702
6.653
6.599
6.54
6.477
6.408
6.335
7.187
7.186
7.183
7.178
7.172
7.165
7.156
7.146
7.134
7.121
7.107
7.091
7.074
7.055
7.034
7.012
6.987
6.962
6.934
6.904
6.872
6.837
6.8
6.761
6.718
6.673
6.624
6.571
6.515
6.454
6.39
6.322
7.149
7.148
7.145
7.14
7.134
7.127
7.118
7.108
7.097
7.084
7.07
7.054
7.037
7.018
6.997
6.975
6.951
6.926
6.898
6.868
6.836
6.802
6.766
6.727
6.685
6.64
6.593
6.542
6.487
6.43
6.369
6.306
7.105
7.104
7.101
7.096
7.091
7.083
7.075
7.065
7.054
7.041
7.027
7.011
6.994
6.976
6.955
6.934
6.91
6.885
6.857
6.828
6.797
6.763
6.728
6.689
6.648
6.605
6.559
6.51
6.458
6.403
6.347
6.289
7.055
7.054
7.051
7.047
7.041
7.034
7.026
7.016
7.005
6.992
6.978
6.963
6.946
6.928
6.908
6.887
6.864
6.839
6.812
6.783
6.753
6.72
6.685
6.648
6.608
6.566
6.522
6.475
6.426
6.375
6.322
6.269
6.999
6.998
6.995
6.991
6.985
6.978
6.97
6.96
6.95
6.937
6.924
6.909
6.892
6.874
6.855
6.834
6.811
6.787
6.761
6.733
6.703
6.672
6.638
6.602
6.564
6.524
6.482
6.438
6.391
6.344
6.295
6.246
6.936
6.935
6.932
6.928
6.922
6.916
6.908
6.898
6.888
6.876
6.862
6.848
6.832
6.814
6.795
6.775
6.753
6.73
6.704
6.677
6.649
6.618
6.586
6.552
6.516
6.478
6.438
6.396
6.354
6.31
6.265
6.22
6.866
6.865
6.862
6.858
6.853
6.846
6.838
6.829
6.819
6.807
6.794
6.78
6.764
6.747
6.729
6.709
6.688
6.665
6.641
6.615
6.588
6.559
6.528
6.496
6.462
6.426
6.389
6.351
6.312
6.271
6.231
6.19
6.788
6.787
6.784
6.78
6.775
6.769
6.761
6.752
6.742
6.731
6.718
6.704
6.689
6.673
6.655
6.636
6.615
6.594
6.571
6.546
6.52
6.493
6.464
6.434
6.402
6.369
6.335
6.3
6.264
6.228
6.192
6.156
6.702
6.701
6.698
6.694
6.689
6.683
6.675
6.667
6.657
6.646
6.633
6.62
6.605
6.589
6.572
6.554
6.535
6.514
6.492
6.469
6.444
6.419
6.392
6.364
6.335
6.305
6.275
6.243
6.211
6.179
6.147
6.116
6.608
6.606
6.604
6.6
6.595
6.589
6.582
6.573
6.563
6.553
6.541
6.527
6.513
6.498
6.481
6.464
6.445
6.425
6.405
6.383
6.36
6.336
6.312
6.286
6.26
6.233
6.206
6.178
6.15
6.122
6.095
6.068
6.509
6.508
6.506
6.502
6.497
6.491
6.484
6.475
6.466
6.455
6.443
6.43
6.416
6.401
6.385
6.368
6.35
6.331
6.312
6.291
6.27
6.248
6.225
6.202
6.179
6.155
6.131
6.107
6.083
6.059
6.037
6.015
6.433
6.431
6.429
6.425
6.42
6.414
6.407
6.399
6.389
6.378
6.367
6.354
6.34
6.325
6.309
6.293
6.275
6.257
6.238
6.218
6.198
6.177
6.155
6.134
6.112
6.09
6.069
6.047
6.026
6.006
5.987
5.968
7.241
7.239
7.236
7.231
7.225
7.217
7.208
7.197
7.184
7.171
7.155
7.138
7.12
7.099
7.077
7.054
7.028
7
6.971
6.939
6.905
6.868
6.828
6.785
6.738
6.688
6.633
6.572
6.505
6.431
6.35
6.261
7.219
7.217
7.214
7.209
7.203
7.195
7.186
7.175
7.162
7.149
7.133
7.116
7.098
7.078
7.056
7.032
7.007
6.979
6.949
6.918
6.883
6.847
6.807
6.764
6.718
6.668
6.614
6.554
6.49
6.419
6.343
6.26
7.192
7.19
7.187
7.182
7.176
7.168
7.159
7.148
7.136
7.122
7.107
7.09
7.072
7.052
7.03
7.006
6.981
6.953
6.924
6.892
6.858
6.822
6.782
6.74
6.694
6.645
6.592
6.534
6.472
6.405
6.333
6.257
7.16
7.158
7.155
7.15
7.144
7.136
7.127
7.116
7.104
7.091
7.076
7.059
7.041
7.021
6.999
6.976
6.951
6.924
6.894
6.863
6.829
6.793
6.754
6.712
6.667
6.619
6.567
6.512
6.452
6.389
6.322
6.252
7.122
7.121
7.117
7.113
7.106
7.099
7.09
7.08
7.068
7.054
7.039
7.023
7.005
6.985
6.964
6.941
6.916
6.889
6.86
6.829
6.796
6.76
6.722
6.681
6.637
6.59
6.54
6.487
6.43
6.37
6.308
6.243
7.079
7.078
7.074
7.07
7.064
7.056
7.048
7.037
7.026
7.012
6.998
6.982
6.964
6.945
6.923
6.901
6.876
6.85
6.821
6.791
6.758
6.723
6.686
6.646
6.604
6.558
6.51
6.459
6.405
6.349
6.291
6.231
7.03
7.029
7.026
7.021
7.015
7.008
6.999
6.989
6.978
6.965
6.95
6.935
6.917
6.898
6.878
6.855
6.831
6.806
6.778
6.748
6.716
6.682
6.646
6.608
6.567
6.523
6.477
6.429
6.378
6.326
6.272
6.217
6.975
6.974
6.971
6.966
6.961
6.953
6.945
6.935
6.924
6.911
6.897
6.882
6.865
6.846
6.826
6.804
6.781
6.756
6.729
6.7
6.669
6.637
6.602
6.565
6.526
6.484
6.441
6.395
6.348
6.299
6.249
6.199
6.914
6.912
6.909
6.905
6.899
6.892
6.884
6.874
6.863
6.851
6.837
6.822
6.806
6.788
6.768
6.747
6.725
6.7
6.674
6.647
6.617
6.586
6.553
6.517
6.48
6.441
6.4
6.358
6.314
6.269
6.224
6.178
6.845
6.843
6.84
6.836
6.831
6.824
6.816
6.807
6.796
6.784
6.771
6.756
6.74
6.723
6.704
6.683
6.662
6.638
6.614
6.587
6.559
6.529
6.498
6.465
6.43
6.393
6.355
6.316
6.276
6.235
6.194
6.153
6.768
6.767
6.764
6.76
6.755
6.748
6.74
6.731
6.721
6.709
6.696
6.682
6.667
6.65
6.632
6.612
6.591
6.569
6.545
6.52
6.494
6.466
6.436
6.405
6.373
6.34
6.305
6.269
6.233
6.196
6.159
6.123
6.684
6.683
6.68
6.676
6.671
6.664
6.657
6.648
6.638
6.626
6.614
6.6
6.585
6.569
6.552
6.533
6.513
6.492
6.469
6.446
6.421
6.395
6.368
6.339
6.31
6.279
6.248
6.216
6.184
6.151
6.119
6.087
6.591
6.59
6.587
6.584
6.579
6.572
6.565
6.556
6.546
6.535
6.523
6.51
6.495
6.48
6.463
6.445
6.426
6.406
6.385
6.363
6.34
6.315
6.29
6.265
6.238
6.211
6.183
6.155
6.127
6.099
6.071
6.044
6.495
6.494
6.491
6.487
6.482
6.476
6.469
6.46
6.451
6.44
6.428
6.415
6.401
6.385
6.369
6.352
6.334
6.315
6.295
6.274
6.253
6.23
6.207
6.184
6.16
6.136
6.112
6.088
6.064
6.04
6.017
5.995
6.42
6.418
6.416
6.412
6.407
6.401
6.394
6.385
6.376
6.365
6.353
6.34
6.326
6.311
6.295
6.278
6.261
6.242
6.223
6.203
6.183
6.162
6.14
6.119
6.097
6.075
6.053
6.032
6.011
5.99
5.971
5.952
7.203
7.201
7.197
7.192
7.185
7.177
7.167
7.155
7.142
7.128
7.111
7.093
7.074
7.052
7.029
7.004
6.976
6.947
6.915
6.881
6.844
6.804
6.761
6.715
6.664
6.609
6.55
6.484
6.413
6.335
6.251
6.16
7.181
7.179
7.175
7.17
7.164
7.155
7.146
7.134
7.121
7.107
7.091
7.073
7.053
7.032
7.008
6.983
6.956
6.927
6.895
6.861
6.825
6.785
6.743
6.697
6.647
6.593
6.535
6.472
6.403
6.329
6.25
6.166
7.155
7.153
7.149
7.144
7.137
7.129
7.12
7.108
7.096
7.081
7.065
7.047
7.028
7.007
6.984
6.959
6.932
6.903
6.871
6.838
6.801
6.762
6.72
6.675
6.627
6.574
6.518
6.457
6.391
6.321
6.247
6.169
7.123
7.122
7.118
7.113
7.106
7.098
7.089
7.078
7.065
7.051
7.035
7.017
6.998
6.977
6.955
6.93
6.903
6.875
6.844
6.81
6.775
6.736
6.695
6.651
6.603
6.552
6.498
6.439
6.377
6.311
6.242
6.17
7.087
7.085
7.082
7.077
7.07
7.062
7.053
7.042
7.03
7.016
7
6.983
6.964
6.943
6.921
6.896
6.87
6.842
6.812
6.779
6.744
6.706
6.666
6.623
6.577
6.527
6.475
6.419
6.36
6.298
6.234
6.168
7.045
7.043
7.04
7.035
7.029
7.021
7.012
7.001
6.989
6.975
6.96
6.943
6.924
6.904
6.882
6.858
6.833
6.805
6.775
6.743
6.709
6.672
6.633
6.591
6.547
6.5
6.449
6.397
6.341
6.283
6.224
6.163
6.998
6.996
6.993
6.988
6.982
6.974
6.965
6.955
6.943
6.929
6.914
6.898
6.879
6.86
6.838
6.815
6.79
6.763
6.734
6.703
6.67
6.634
6.596
6.556
6.514
6.468
6.421
6.371
6.319
6.265
6.21
6.154
6.944
6.943
6.939
6.935
6.929
6.921
6.912
6.902
6.89
6.877
6.863
6.847
6.829
6.81
6.789
6.766
6.742
6.716
6.688
6.658
6.626
6.592
6.555
6.517
6.477
6.434
6.389
6.342
6.294
6.244
6.193
6.142
6.884
6.883
6.879
6.875
6.869
6.862
6.853
6.843
6.832
6.819
6.805
6.789
6.772
6.753
6.733
6.711
6.688
6.663
6.636
6.607
6.576
6.544
6.51
6.473
6.435
6.395
6.353
6.309
6.265
6.219
6.172
6.126
6.817
6.816
6.813
6.808
6.803
6.795
6.787
6.777
6.766
6.754
6.74
6.725
6.709
6.691
6.671
6.65
6.628
6.603
6.578
6.55
6.521
6.491
6.458
6.424
6.388
6.351
6.312
6.272
6.231
6.19
6.148
6.106
6.743
6.741
6.738
6.734
6.729
6.722
6.714
6.704
6.694
6.682
6.668
6.654
6.638
6.62
6.602
6.582
6.56
6.537
6.513
6.487
6.46
6.431
6.401
6.369
6.336
6.302
6.266
6.23
6.193
6.155
6.118
6.081
6.66
6.659
6.656
6.652
6.647
6.64
6.632
6.623
6.613
6.601
6.588
6.574
6.559
6.542
6.524
6.505
6.485
6.463
6.44
6.416
6.39
6.364
6.336
6.307
6.277
6.246
6.214
6.181
6.148
6.115
6.083
6.051
6.57
6.569
6.566
6.562
6.557
6.551
6.543
6.534
6.524
6.513
6.5
6.487
6.472
6.456
6.439
6.421
6.401
6.381
6.359
6.337
6.313
6.288
6.263
6.237
6.21
6.182
6.154
6.125
6.097
6.068
6.04
6.013
6.476
6.475
6.472
6.468
6.463
6.457
6.45
6.441
6.431
6.42
6.408
6.395
6.38
6.365
6.348
6.331
6.312
6.293
6.273
6.252
6.23
6.207
6.184
6.161
6.136
6.112
6.088
6.063
6.039
6.015
5.992
5.97
6.403
6.401
6.399
6.395
6.39
6.384
6.376
6.368
6.358
6.347
6.335
6.322
6.308
6.293
6.277
6.26
6.242
6.223
6.204
6.184
6.163
6.142
6.12
6.099
6.077
6.055
6.033
6.011
5.99
5.969
5.95
5.931
7.156
7.154
7.15
7.144
7.137
7.128
7.118
7.105
7.092
7.076
7.059
7.04
7.019
6.996
6.971
6.944