/*--------------------------------*- C++ -*----------------------------------*\
  =========                 |
  \\      /  F ield         | OpenFOAM: The Open Source CFD Toolbox
   \\    /   O peration     | Website:  https://openfoam.org
    \\  /    A nd           | Version:  6
     \\/     M anipulation  |
\*---------------------------------------------------------------------------*/
FoamFile
{
    version     2.0;
    format      ascii;
    class       volScalarField;
    location    "20";
    object      T;
}
// * * * * * * * * * * * * * * * * * * * * * * * * * * * * * * * * * * * * * //

dimensions      [0 0 0 1 0 0 0];

internalField   nonuniform List<scalar> 
16128
(
2.347
2.216
2.088
1.961
1.839
1.721
1.607
1.5
1.399
1.305
1.218
1.137
1.064
0.9985
0.9396
0.8875
0.842
2.484
2.354
2.224
2.096
1.97
1.848
1.73
1.617
1.51
1.409
1.315
1.228
1.148
1.075
1.009
0.9497
0.8975
0.8519
2.626
2.498
2.369
2.24
2.112
1.987
1.866
1.749
1.636
1.53
1.429
1.335
1.248
1.168
1.095
1.029
0.97
0.9176
0.8717
2.77
2.645
2.518
2.39
2.263
2.137
2.013
1.893
1.776
1.665
1.559
1.459
1.366
1.279
1.199
1.126
1.06
1.001
0.9478
0.9016
3.648
3.632
3.602
3.559
3.501
3.431
3.35
3.257
3.155
3.044
2.926
2.803
2.674
2.543
2.409
2.275
2.141
2.01
1.881
1.756
1.635
1.52
1.412
1.31
1.215
1.127
1.047
0.9743
0.909
0.8509
0.7998
0.7554
3.649
3.634
3.604
3.56
3.503
3.434
3.353
3.26
3.159
3.049
2.931
2.808
2.68
2.549
2.416
2.282
2.149
2.018
1.89
1.765
1.645
1.53
1.422
1.32
1.225
1.138
1.057
0.9846
0.9192
0.861
0.8097
0.7651
3.652
3.637
3.607
3.564
3.508
3.439
3.358
3.267
3.166
3.057
2.941
2.819
2.692
2.562
2.43
2.297
2.165
2.035
1.907
1.783
1.664
1.55
1.442
1.34
1.246
1.158
1.078
1.005
0.9395
0.8811
0.8295
0.7846
3.656
3.641
3.612
3.569
3.513
3.446
3.366
3.276
3.177
3.069
2.955
2.834
2.709
2.581
2.451
2.32
2.189
2.06
1.934
1.811
1.693
1.579
1.472
1.371
1.277
1.189
1.109
1.036
0.9702
0.9114
0.8595
0.8142
3.616
3.6
3.569
3.524
3.465
3.393
3.309
3.214
3.108
2.995
2.873
2.746
2.614
2.479
2.342
2.204
2.068
1.933
1.801
1.674
1.552
1.435
1.325
1.222
1.127
1.039
0.9591
0.8869
0.8224
0.7653
0.7155
0.6724
3.617
3.602
3.571
3.526
3.467
3.396
3.312
3.217
3.112
2.999
2.878
2.751
2.62
2.486
2.349
2.212
2.076
1.942
1.81
1.683
1.561
1.445
1.335
1.233
1.137
1.049
0.9694
0.8971
0.8325
0.7753
0.7252
0.6819
3.62
3.605
3.574
3.53
3.472
3.401
3.318
3.224
3.12
3.008
2.888
2.762
2.632
2.499
2.363
2.228
2.092
1.959
1.829
1.702
1.581
1.465
1.356
1.253
1.158
1.07
0.9901
0.9176
0.8527
0.7951
0.7447
0.701
3.624
3.609
3.579
3.535
3.478
3.408
3.326
3.234
3.131
3.021
2.903
2.779
2.65
2.518
2.385
2.251
2.117
1.985
1.856
1.731
1.61
1.495
1.386
1.284
1.189
1.101
1.021
0.9485
0.8832
0.8252
0.7742
0.7299
3.586
3.57
3.538
3.491
3.431
3.356
3.27
3.172
3.063
2.946
2.822
2.691
2.555
2.417
2.276
2.135
1.996
1.858
1.724
1.594
1.47
1.352
1.241
1.137
1.041
0.9535
0.874
0.8025
0.7391
0.6833
0.6349
0.5933
3.587
3.571
3.54
3.493
3.433
3.359
3.273
3.175
3.067
2.951
2.827
2.696
2.562
2.424
2.284
2.143
2.004
1.867
1.733
1.604
1.48
1.362
1.251
1.147
1.052
0.9639
0.8843
0.8127
0.749
0.693
0.6444
0.6026
3.59
3.574
3.543
3.497
3.437
3.364
3.279
3.182
3.075
2.96
2.837
2.708
2.574
2.437
2.299
2.159
2.021
1.885
1.752
1.623
1.5
1.382
1.272
1.168
1.073
0.9848
0.9049
0.833
0.769
0.7126
0.6634
0.6211
3.594
3.579
3.548
3.503
3.444
3.372
3.288
3.192
3.087
2.973
2.852
2.725
2.593
2.458
2.321
2.183
2.046
1.911
1.78
1.652
1.53
1.413
1.303
1.2
1.104
1.016
0.936
0.8638
0.7992
0.7422
0.6923
0.6494
3.557
3.54
3.508
3.46
3.398
3.321
3.232
3.131
3.02
2.9
2.772
2.637
2.498
2.356
2.212
2.068
1.925
1.785
1.648
1.516
1.39
1.271
1.159
1.054
0.9585
0.871
0.7921
0.7217
0.6595
0.6052
0.5585
0.5188
3.559
3.542
3.51
3.462
3.4
3.324
3.235
3.135
3.024
2.904
2.777
2.643
2.505
2.363
2.22
2.077
1.934
1.794
1.658
1.526
1.4
1.281
1.169
1.065
0.969
0.8814
0.8024
0.7317
0.6692
0.6147
0.5677
0.5276
3.562
3.545
3.513
3.466
3.404
3.329
3.241
3.142
3.032
2.914
2.787
2.655
2.518
2.377
2.235
2.093
1.952
1.812
1.677
1.546
1.421
1.302
1.19
1.086
0.99
0.9023
0.8229
0.7518
0.6889
0.6338
0.5862
0.5456
3.566
3.55
3.518
3.472
3.411
3.337
3.25
3.153
3.044
2.927
2.803
2.672
2.537
2.398
2.258
2.117
1.977
1.84
1.706
1.576
1.451
1.333
1.222
1.118
1.022
0.9337
0.8539
0.7822
0.7186
0.6628
0.6143
0.5729
3.53
3.513
3.479
3.43
3.366
3.288
3.196
3.093
2.978
2.855
2.723
2.586
2.443
2.298
2.151
2.003
1.857
1.714
1.575
1.441
1.313
1.192
1.079
0.9748
0.8789
0.7919
0.7139
0.6446
0.5839
0.5314
0.4866
0.449
3.531
3.514
3.481
3.432
3.368
3.29
3.199
3.096
2.983
2.86
2.729
2.592
2.45
2.305
2.159
2.012
1.866
1.724
1.585
1.451
1.324
1.203
1.09
0.9854
0.8894
0.8023
0.724
0.6545
0.5935
0.5406
0.4955
0.4575
3.534
3.518
3.485
3.436
3.373
3.296
3.206
3.104
2.991
2.869
2.74
2.604
2.463
2.32
2.174
2.029
1.884
1.742
1.604
1.471
1.344
1.224
1.111
1.007
0.9105
0.823
0.7443
0.6743
0.6127
0.5592
0.5133
0.4746
3.539
3.522
3.49
3.442
3.38
3.304
3.215
3.115
3.004
2.884
2.756
2.622
2.483
2.341
2.198
2.054
1.911
1.77
1.634
1.502
1.375
1.256
1.143
1.039
0.9422
0.8544
0.7751
0.7043
0.6418
0.5874
0.5405
0.5008
3.504
3.487
3.452
3.402
3.336
3.256
3.162
3.056
2.939
2.812
2.677
2.536
2.391
2.242
2.091
1.941
1.792
1.646
1.504
1.368
1.239
1.117
1.003
0.8986
0.8029
0.7166
0.6396
0.5718
0.5129
0.4624
0.4198
0.3844
3.506
3.488
3.454
3.404
3.339
3.259
3.165
3.06
2.943
2.817
2.683
2.543
2.397
2.249
2.099
1.949
1.801
1.656
1.515
1.379
1.25
1.128
1.014
0.9092
0.8134
0.7268
0.6496
0.5815
0.5222
0.4713
0.4282
0.3924
3.509
3.492
3.458
3.408
3.344
3.264
3.172
3.067
2.952
2.827
2.694
2.555
2.411
2.264
2.116
1.967
1.819
1.675
1.535
1.399
1.271
1.149
1.036
0.9305
0.8344
0.7475
0.6696
0.6008
0.5408
0.4891
0.4453
0.4086
3.514
3.497
3.463
3.415
3.351
3.273
3.181
3.078
2.965
2.842
2.711
2.574
2.432
2.286
2.14
1.993
1.847
1.704
1.564
1.43
1.302
1.181
1.068
0.9626
0.8661
0.7786
0.7
0.6303
0.5692
0.5164
0.4714
0.4336
3.48
3.462
3.427
3.376
3.308
3.226
3.129
3.021
2.901
2.771
2.633
2.489
2.34
2.188
2.034
1.881
1.729
1.581
1.437
1.299
1.168
1.045
0.931
0.8261
0.7308
0.6454
0.5697
0.5036
0.4467
0.3984
0.3582
0.3252
3.482
3.464
3.429
3.378
3.311
3.229
3.133
3.025
2.905
2.776
2.639
2.496
2.347
2.196
2.043
1.89
1.739
1.591
1.447
1.31
1.179
1.056
0.9418
0.8367
0.7413
0.6555
0.5795
0.513
0.4556
0.4069
0.3662
0.3327
3.485
3.467
3.433
3.382
3.316
3.235
3.14
3.033
2.914
2.787
2.651
2.509
2.361
2.211
2.059
1.908
1.757
1.61
1.468
1.331
1.2
1.078
0.9633
0.8581
0.7622
0.6759
0.5992
0.5319
0.4736
0.424
0.3823
0.348
3.49
3.472
3.439
3.388
3.323
3.243
3.15
3.044
2.928
2.802
2.668
2.527
2.382
2.234
2.084
1.934
1.785
1.64
1.498
1.362
1.232
1.11
0.9956
0.8902
0.7938
0.7067
0.6291
0.5606
0.5011
0.4501
0.4071
0.3715
3.458
3.439
3.404
3.351
3.282
3.198
3.099
2.988
2.865
2.733
2.592
2.445
2.292
2.137
1.98
1.824
1.67
1.519
1.373
1.233
1.101
0.9771
0.8625
0.7577
0.6631
0.5787
0.5046
0.4404
0.3857
0.3398
0.3021
0.2718
3.459
3.441
3.406
3.353
3.284
3.201
3.103
2.992
2.87
2.738
2.598
2.451
2.3
2.145
1.989
1.833
1.679
1.529
1.383
1.244
1.112
0.988
0.8733
0.7683
0.6734
0.5887
0.5141
0.4495
0.3942
0.3478
0.3096
0.2787
3.463
3.445
3.41
3.358
3.29
3.207
3.11
3
2.879
2.749
2.61
2.464
2.314
2.161
2.006
1.851
1.698
1.549
1.404
1.265
1.133
1.01
0.8949
0.7896
0.6942
0.6088
0.5334
0.4677
0.4115
0.364
0.3247
0.2929
3.468
3.45
3.415
3.364
3.297
3.215
3.12
3.012
2.893
2.764
2.627
2.484
2.336
2.184
2.031
1.878
1.727
1.579
1.435
1.297
1.166
1.042
0.9274
0.8217
0.7256
0.6392
0.5626
0.4956
0.4379
0.389
0.3482
0.3148
3.437
3.418
3.382
3.328
3.257
3.171
3.071
2.957
2.832
2.697
2.553
2.403
2.248
2.089
1.93
1.771
1.614
1.46
1.312
1.171
1.038
0.9132
0.7984
0.6938
0.6
0.5169
0.4445
0.3824
0.3301
0.2869
0.2519
0.2243
3.439
3.42
3.384
3.33
3.26
3.175
3.075
2.962
2.837
2.702
2.559
2.41
2.255
2.097
1.938
1.78
1.623
1.471
1.323
1.182
1.049
0.9241
0.8092
0.7044
0.6102
0.5267
0.4538
0.3912
0.3382
0.2944
0.2588
0.2306
3.442
3.424
3.388
3.335
3.265
3.181
3.082
2.97
2.846
2.713
2.571
2.423
2.27
2.114
1.956
1.798
1.643
1.491
1.344
1.204
1.071
0.946
0.8308
0.7256
0.6308
0.5464
0.4725
0.4087
0.3546
0.3096
0.2728
0.2435
3.447
3.429
3.394
3.342
3.273
3.19
3.092
2.982
2.86
2.729
2.589
2.443
2.292
2.138
1.982
1.826
1.672
1.522
1.376
1.236
1.103
0.9788
0.8634
0.7576
0.6619
0.5763
0.501
0.4357
0.3799
0.3331
0.2947
0.2638
3.418
3.399
3.362
3.307
3.235
3.147
3.045
2.929
2.801
2.664
2.517
2.364
2.206
2.045
1.883
1.721
1.561
1.406
1.256
1.114
0.979
0.8539
0.739
0.6349
0.542
0.4604
0.3899
0.3301
0.2803
0.2398
0.2075
0.1827
3.42
3.401
3.364
3.309
3.238
3.151
3.049
2.933
2.806
2.669
2.523
2.371
2.214
2.053
1.892
1.73
1.571
1.417
1.267
1.124
0.9901
0.8649
0.7498
0.6454
0.5521
0.47
0.3988
0.3384
0.2879
0.2467
0.2138
0.1883
3.423
3.405
3.368
3.314
3.243
3.157
3.056
2.942
2.816
2.68
2.536
2.385
2.229
2.07
1.909
1.749
1.591
1.437
1.288
1.146
1.012
0.8868
0.7714
0.6665
0.5723
0.4892
0.4169
0.3552
0.3034
0.2608
0.2266
0.1999
3.429
3.41
3.374
3.321
3.251
3.166
3.067
2.954
2.83
2.697
2.554
2.405
2.251
2.094
1.936
1.777
1.621
1.468
1.32
1.179
1.045
0.9198
0.804
0.6983
0.6031
0.5185
0.4446
0.3811
0.3274
0.2829
0.2468
0.2184
3.401
3.382
3.344
3.288
3.215
3.125
3.021
2.903
2.773
2.633
2.484
2.329
2.168
2.004
1.839
1.675
1.514
1.356
1.205
1.061
0.9252
0.7997
0.6848
0.5813
0.4894
0.4094
0.3409
0.2834
0.2363
0.1986
0.1691
0.147
3.403
3.384
3.346
3.29
3.218
3.129
3.025
2.908
2.778
2.639
2.491
2.336
2.176
2.013
1.848
1.685
1.524
1.367
1.216
1.072
0.9363
0.8107
0.6956
0.5917
0.4993
0.4187
0.3495
0.2913
0.2434
0.2049
0.1747
0.1519
3.406
3.388
3.35
3.295
3.223
3.135
3.033
2.916
2.788
2.65
2.503
2.35
2.191
2.03
1.867
1.704
1.544
1.388
1.237
1.094
0.9585
0.8327
0.7171
0.6125
0.5193
0.4374
0.3669
0.3073
0.2579
0.2178
0.1863
0.1622
3.412
3.393
3.356
3.302
3.231
3.145
3.044
2.929
2.803
2.667
2.522
2.371
2.214
2.055
1.893
1.733
1.574
1.419
1.27
1.127
0.9918
0.8658
0.7497
0.6441
0.5495
0.4661
0.3937
0.332
0.2805
0.2383
0.2048
0.1788
3.386
3.366
3.328
3.271
3.197
3.106
3
2.88
2.748
2.606
2.455
2.297
2.134
1.967
1.8
1.634
1.47
1.311
1.158
1.013
0.8768
0.7509
0.6362
0.5333
0.4426
0.3642
0.2978
0.2427
0.1983
0.1633
0.1366
0.1171
3.388
3.368
3.33
3.273
3.199
3.109
3.004
2.885
2.753
2.612
2.461
2.304
2.141
1.976
1.81
1.644
1.481
1.322
1.169
1.024
0.8879
0.7619
0.6469
0.5436
0.4523
0.3732
0.306
0.2501
0.2048
0.169
0.1415
0.1212
3.391
3.372
3.334
3.278
3.205
3.116
3.011
2.894
2.764
2.623
2.474
2.318
2.157
1.993
1.828
1.663
1.501
1.343
1.191
1.046
0.9102
0.7839
0.6684
0.5642
0.4719
0.3914
0.3227
0.2652
0.2182
0.1807
0.1517
0.1301
3.397
3.378
3.34
3.285
3.213
3.125
3.023
2.907
2.779
2.64
2.493
2.339
2.181
2.019
1.855
1.692
1.532
1.375
1.224
1.08
0.9436
0.8171
0.7008
0.5955
0.5017
0.4194
0.3485
0.2887
0.2394
0.1996
0.1684
0.1448
3.372
3.353
3.314
3.256
3.181
3.089
2.981
2.86
2.726
2.582
2.429
2.268
2.103
1.935
1.766
1.597
1.432
1.271
1.117
0.9708
0.8341
0.708
0.5935
0.4914
0.4019
0.3251
0.2607
0.208
0.1662
0.1339
0.1098
0.09271
3.374
3.355
3.316
3.258
3.184
3.092
2.985
2.864
2.731
2.588
2.435
2.276
2.111
1.944
1.775
1.607
1.443
1.282
1.128
0.9821
0.8453
0.719
0.6042
0.5015
0.4114
0.3338
0.2685
0.2149
0.1721
0.1389
0.1139
0.09605
3.378
3.359
3.32
3.263
3.189
3.099
2.993
2.873
2.742
2.599
2.448
2.29
2.127
1.961
1.794
1.627
1.463
1.304
1.15
1.004
0.8676
0.741
0.6256
0.5219
0.4306
0.3515
0.2845
0.2291
0.1844
0.1494
0.1228
0.1035
3.383
3.364
3.326
3.271
3.198
3.109
3.004
2.887
2.757
2.617
2.468
2.312
2.151
1.987
1.822
1.657
1.494
1.336
1.183
1.038
0.9012
0.7742
0.6579
0.5529
0.4598
0.3787
0.3094
0.2514
0.2041
0.1666
0.1377
0.1164
3.361
3.341
3.301
3.243
3.167
3.074
2.965
2.843
2.707
2.561
2.406
2.244
2.077
1.907
1.736
1.566
1.399
1.237
1.082
0.9348
0.7976
0.6714
0.5573
0.4559
0.3675
0.2923
0.2298
0.1793
0.1399
0.1101
0.08848
0.07352
3.363
3.343
3.304
3.246
3.17
3.077
2.969
2.847
2.713
2.567
2.413
2.252
2.085
1.916
1.746
1.576
1.41
1.248
1.093
0.9461
0.8088
0.6824
0.5679
0.4659
0.3768
0.3007
0.2373
0.1857
0.1452
0.1144
0.09183
0.07608
3.367
3.347
3.308
3.251
3.176
3.084
2.977
2.856
2.723
2.579
2.426
2.267
2.102
1.934
1.765
1.596
1.431
1.27
1.115
0.9686
0.8312
0.7044
0.5891
0.4861
0.3956
0.3178
0.2525
0.199
0.1564
0.1237
0.09933
0.08209
3.372
3.353
3.314
3.258
3.184
3.094
2.989
2.87
2.738
2.597
2.446
2.288
2.126
1.96
1.793
1.626
1.462
1.302
1.149
1.002
0.8649
0.7376
0.6213
0.5167
0.4244
0.3443
0.2764
0.2202
0.1748
0.1393
0.1125
0.09318
3.351
3.331
3.291
3.232
3.156
3.062
2.952
2.828
2.692
2.544
2.388
2.224
2.056
1.884
1.712
1.54
1.372
1.209
1.053
0.9053
0.7678
0.6416
0.5279
0.4272
0.3399
0.2661
0.2052
0.1567
0.1193
0.09165
0.07214
0.05904
3.353
3.333
3.294
3.235
3.159
3.065
2.956
2.833
2.697
2.55
2.395
2.232
2.064
1.893
1.721
1.551
1.383
1.22
1.064
0.9166
0.779
0.6526
0.5384
0.4371
0.349
0.2742
0.2123
0.1626
0.1241
0.0953
0.07478
0.06087
3.357
3.337
3.298
3.24
3.164
3.072
2.964
2.842
2.708
2.562
2.408
2.247
2.081
1.911
1.741
1.571
1.404
1.242
1.087
0.9392
0.8014
0.6745
0.5595
0.457
0.3674
0.2908
0.2269
0.1751
0.1343
0.1034
0.08102
0.06557
3.363
3.343
3.305
3.248
3.173
3.082
2.976
2.856
2.723
2.58
2.428
2.269
2.105
1.938
1.769
1.601
1.436
1.275
1.12
0.9731
0.8352
0.7076
0.5914
0.4873
0.3957
0.3167
0.25
0.1952
0.1514
0.1176
0.0926
0.075
3.343
3.323
3.283
3.224
3.147
3.052
2.942
2.817
2.679
2.531
2.373
2.209
2.039
1.867
1.693
1.521
1.351
1.188
1.031
0.8827
0.745
0.619
0.5056
0.4057
0.3194
0.2468
0.1873
0.1402
0.1043
0.07829
0.06037
0.04867
3.345
3.325
3.286
3.227
3.15
3.056
2.946
2.822
2.685
2.537
2.38
2.216
2.048
1.876
1.703
1.531
1.362
1.199
1.042
0.894
0.7562
0.6299
0.5161
0.4155
0.3284
0.2547
0.1941
0.1457
0.1086
0.08139
0.06242
0.0499
3.349
3.329
3.29
3.232
3.156
3.062
2.954
2.831
2.695
2.549
2.394
2.232
2.064
1.894
1.722
1.551
1.384
1.221
1.065
0.9167
0.7786
0.6518
0.537
0.4351
0.3464
0.2709
0.2081
0.1575
0.118
0.08855
0.06759
0.05351
3.355
3.335
3.297
3.239
3.164
3.073
2.966
2.845
2.711
2.567
2.414
2.254
2.089
1.92
1.751
1.582
1.415
1.254
1.098
0.9506
0.8124
0.6848
0.5688
0.4652
0.3742
0.2961
0.2305
0.1767
0.1341
0.1016
0.07785
0.06156
3.338
3.317
3.277
3.218
3.14
3.045
2.934
2.809
2.671
2.522
2.363
2.198
2.028
1.854
1.68
1.507
1.337
1.173
1.015
0.8672
0.7296
0.6038
0.491
0.3917
0.3064
0.2348
0.1764
0.1303
0.09524
0.06994
0.05275
0.04174
3.34
3.32
3.28
3.22
3.143
3.049
2.938
2.814
2.676
2.528
2.37
2.206
2.036
1.863
1.69
1.517
1.348
1.184
1.027
0.8786
0.7408
0.6147
0.5013
0.4014
0.3152
0.2426
0.183
0.1356
0.09923
0.07268
0.05441
0.0426
3.344
3.324
3.284
3.226
3.149
3.056
2.946
2.823
2.687
2.54
2.384
2.221
2.053
1.881
1.709
1.538
1.369
1.206
1.049
0.9013
0.7632
0.6365
0.5221
0.4208
0.3329
0.2583
0.1966
0.1468
0.1081
0.0792
0.05887
0.04546
3.349
3.33
3.291
3.233
3.158
3.066
2.958
2.837
2.703
2.558
2.404
2.243
2.077
1.908
1.738
1.568
1.401
1.239
1.083
0.9353
0.7969
0.6694
0.5537
0.4506
0.3604
0.2831
0.2183
0.1654
0.1235
0.09146
0.06829
0.05264
3.334
3.314
3.273
3.214
3.136
3.041
2.93
2.804
2.666
2.516
2.358
2.192
2.021
1.847
1.673
1.499
1.329
1.165
1.008
0.8593
0.7218
0.5963
0.484
0.3854
0.301
0.2304
0.1731
0.1277
0.09292
0.06728
0.04934
0.03767
3.336
3.316
3.276
3.216
3.139
3.044
2.934
2.809
2.671
2.522
2.365
2.2
2.03
1.856
1.683
1.51
1.34
1.176
1.019
0.8706
0.733
0.6071
0.4942
0.395
0.3096
0.238
0.1794
0.1328
0.0968
0.06993
0.05088
0.03835
3.34
3.32
3.28
3.222
3.145
3.051
2.942
2.818
2.682
2.535
2.378
2.215
2.046
1.875
1.702
1.53
1.362
1.198
1.041
0.8933
0.7553
0.6288
0.5149
0.4142
0.3271
0.2535
0.1927
0.1438
0.1054
0.07627
0.05514
0.0409
3.346
3.326
3.287
3.229
3.154
3.061
2.954
2.832
2.698
2.553
2.398
2.237
2.071
1.901
1.731
1.561
1.394
1.231
1.075
0.9273
0.789
0.6617
0.5463
0.4437
0.3542
0.2778
0.214
0.1619
0.1205
0.08836
0.06454
0.04805
3.332
3.312
3.272
3.212
3.134
3.039
2.928
2.802
2.664
2.515
2.356
2.19
2.02
1.846
1.671
1.498
1.328
1.164
1.007
0.8585
0.7211
0.596
0.484
0.3859
0.3022
0.2324
0.176
0.1317
0.0976
0.07148
0.05118
0.03589
3.334
3.314
3.274
3.215
3.137
3.043
2.932
2.807
2.669
2.521
2.363
2.198
2.028
1.855
1.681
1.508
1.339
1.175
1.018
0.8698
0.7323
0.6068
0.4942
0.3954
0.3107
0.2399
0.1823
0.1368
0.1015
0.07426
0.05292
0.03652
3.338
3.318
3.278
3.22
3.143
3.05
2.94
2.816
2.68
2.533
2.377
2.213
2.045
1.873
1.701
1.529
1.36
1.197
1.04
0.8924
0.7546
0.6284
0.5148
0.4146
0.3281
0.2552
0.1954
0.1476
0.11
0.08078
0.05754
0.03911
3.344
3.324
3.285
3.227
3.152
3.06
2.952
2.83
2.696
2.551
2.397
2.236
2.07
1.9
1.729
1.56
1.392
1.23
1.074
0.9263
0.7882
0.6611
0.5461
0.4439
0.355
0.2793
0.2164
0.1654
0.1249
0.09302
0.06771
0.04727
2.911
2.791
2.669
2.544
2.418
2.293
2.169
2.047
1.928
1.813
1.703
1.598
1.499
1.406
1.32
1.24
1.167
1.101
1.041
0.9885
0.942
3.047
2.935
2.818
2.698
2.576
2.453
2.33
2.208
2.089
1.972
1.859
1.75
1.647
1.549
1.457
1.371
1.292
1.219
1.153
1.093
1.04
0.9931
3.175
3.072
2.963
2.849
2.732
2.614
2.494
2.374
2.255
2.138
2.024
1.913
1.807
1.705
1.608
1.517
1.432
1.354
1.281
1.215
1.156
1.102
1.055
3.293
3.199
3.099
2.994
2.884
2.771
2.656
2.54
2.424
2.308
2.195
2.083
1.975
1.871
1.772
1.677
1.588
1.504
1.426
1.354
1.289
1.229
1.176
1.129
3.314
3.225
3.129
3.027
2.922
2.814
2.703
2.591
2.479
2.368
2.258
2.15
2.045
1.944
1.847
1.755
1.667
1.585
1.509
1.438
1.373
1.314
1.261
1.214
3.415
3.337
3.251
3.16
3.063
2.963
2.859
2.753
2.646
2.539
2.432
2.326
2.223
2.122
2.024
1.93
1.841
1.756
1.676
1.601
1.532
1.468
1.41
1.358
1.311
3.5
3.433
3.359
3.278
3.191
3.1
3.005
2.907
2.806
2.705
2.603
2.501
2.4
2.301
2.205
2.111
2.021
1.935
1.853
1.775
1.703
1.636
1.574
1.517
1.465
1.419
3.567
3.512
3.449
3.38
3.304
3.223
3.137
3.048
2.956
2.861
2.766
2.67
2.573
2.478
2.385
2.293
2.204
2.118
2.036
1.957
1.883
1.813
1.748
1.688
1.633
1.583
1.538
3.617
3.573
3.522
3.463
3.399
3.329
3.254
3.174
3.091
3.005
2.917
2.828
2.738
2.649
2.559
2.471
2.385
2.301
2.22
2.143
2.068
1.998
1.931
1.869
1.812
1.759
1.711
1.668
3.647
3.615
3.575
3.528
3.475
3.416
3.351
3.283
3.21
3.133
3.054
2.974
2.891
2.808
2.725
2.642
2.561
2.481
2.403
2.327
2.254
2.185
2.118
2.056
1.997
1.943
1.893
1.847
1.805
3.66
3.637
3.608
3.572
3.53
3.482
3.429
3.371
3.309
3.243
3.174
3.102
3.028
2.954
2.878
2.802
2.726
2.652
2.578
2.506
2.436
2.369
2.305
2.243
2.185
2.13
2.079
2.032
1.989
1.95
3.655
3.642
3.622
3.596
3.565
3.527
3.485
3.438
3.386
3.331
3.272
3.211
3.147
3.081
3.014
2.946
2.878
2.81
2.742
2.676
2.61
2.547
2.486
2.427
2.371
2.317
2.267
2.22
2.176
2.137
2.1
3.635
3.629
3.618
3.601
3.578
3.551
3.519
3.482
3.441
3.396
3.348
3.297
3.243
3.187
3.13
3.071
3.011
2.951
2.89
2.83
2.771
2.713
2.656
2.601
2.548
2.497
2.449
2.403
2.361
2.321
2.285
2.251
3.603
3.598
3.588
3.574
3.555
3.532
3.504
3.473
3.438
3.4
3.359
3.315
3.269
3.22
3.17
3.119
3.067
3.015
2.962
2.909
2.857
2.806
2.755
2.706
2.659
2.614
2.57
2.529
2.491
2.455
2.422
2.392
3.577
3.573
3.564
3.552
3.535
3.515
3.49
3.463
3.432
3.398
3.361
3.322
3.28
3.237
3.192
3.146
3.099
3.051
3.003
2.955
2.907
2.86
2.814
2.769
2.726
2.684
2.643
2.605
2.57
2.536
2.505
2.477
3.66
3.646
3.617
3.576
3.521
3.454
3.377
3.288
3.191
3.086
2.973
2.855
2.732
2.606
2.478
2.349
2.22
2.093
1.969
1.847
1.73
1.618
1.512
1.411
1.318
1.231
1.15
1.077
1.011
0.9523
0.8999
0.8541
3.666
3.651
3.624
3.583
3.53
3.465
3.389
3.303
3.208
3.105
2.995
2.88
2.76
2.636
2.511
2.385
2.259
2.134
2.012
1.892
1.777
1.667
1.561
1.462
1.369
1.282
1.203
1.13
1.063
1.004
0.9512
0.9048
3.671
3.657
3.63
3.591
3.539
3.476
3.403
3.32
3.227
3.127
3.021
2.908
2.792
2.672
2.55
2.427
2.304
2.182
2.063
1.946
1.833
1.724
1.621
1.523
1.431
1.345
1.265
1.193
1.126
1.067
1.014
0.9668
3.676
3.663
3.637
3.599
3.549
3.489
3.418
3.337
3.249
3.152
3.049
2.941
2.828
2.712
2.594
2.475
2.355
2.237
2.121
2.007
1.897
1.791
1.689
1.593
1.502
1.417
1.339
1.267
1.201
1.141
1.088
1.041
3.681
3.668
3.643
3.607
3.559
3.501
3.433
3.356
3.271
3.179
3.08
2.976
2.867
2.756
2.642
2.528
2.413
2.298
2.186
2.076
1.969
1.865
1.767
1.672
1.584
1.5
1.423
1.351
1.286
1.227
1.174
1.126
3.684
3.671
3.648
3.613
3.568
3.513
3.448
3.375
3.294
3.206
3.112
3.013
2.91
2.803
2.695
2.585
2.475
2.365
2.257
2.151
2.048
1.948
1.852
1.761
1.674
1.593
1.517
1.447
1.383
1.324
1.271
1.224
3.684
3.673
3.651
3.618
3.576
3.524
3.463
3.394
3.317
3.234
3.145
3.051
2.953
2.853
2.75
2.645
2.541
2.436
2.333
2.232
2.133
2.038
1.946
1.858
1.774
1.695
1.622
1.553
1.49
1.433
1.381
1.334
3.683
3.672
3.651
3.621
3.581
3.532
3.475
3.411
3.339
3.261
3.178
3.09
2.998
2.904
2.807
2.709
2.61
2.512
2.414
2.318
2.224
2.133
2.046
1.962
1.882
1.806
1.735
1.669
1.608
1.552
1.501
1.456
3.677
3.667
3.648
3.62
3.583
3.538
3.486
3.426
3.359
3.287
3.21
3.128
3.043
2.955
2.865
2.774
2.681
2.589
2.498
2.408
2.32
2.234
2.151
2.072
1.996
1.924
1.856
1.793
1.735
1.681
1.632
1.588
3.667
3.658
3.641
3.615
3.581
3.54
3.492
3.438
3.377
3.311
3.24
3.165
3.087
3.006
2.923
2.839
2.754
2.669
2.584
2.501
2.419
2.339
2.262
2.187
2.116
2.048
1.985
1.925
1.869
1.818
1.772
1.73
3.652
3.644
3.628
3.605
3.575
3.538
3.495
3.446
3.391
3.331
3.268
3.2
3.129
3.056
2.98
2.904
2.826
2.748
2.671
2.595
2.519
2.446
2.375
2.306
2.24
2.177
2.118
2.062
2.01
1.962
1.919
1.879
3.631
3.624
3.61
3.589
3.563
3.53
3.492
3.449
3.4
3.348
3.291
3.231
3.168
3.102
3.035
2.966
2.897
2.827
2.757
2.688
2.62
2.554
2.489
2.426
2.366
2.309
2.254
2.203
2.155
2.111
2.07
2.034
3.603
3.597
3.585
3.567
3.545
3.517
3.484
3.446
3.404
3.358
3.309
3.257
3.202
3.144
3.085
3.025
2.964
2.902
2.841
2.78
2.719
2.66
2.602
2.546
2.492
2.44
2.391
2.344
2.301
2.26
2.223
2.19
3.57
3.565
3.555
3.54
3.521
3.497
3.469
3.437
3.401
3.362
3.32
3.275
3.228
3.179
3.128
3.076
3.023
2.969
2.915
2.861
2.808
2.756
2.704
2.655
2.606
2.56
2.516
2.474
2.435
2.399
2.365
2.334
3.543
3.539
3.53
3.517
3.5
3.48
3.455
3.427
3.395
3.36
3.323
3.283
3.24
3.196
3.15
3.103
3.055
3.007
2.958
2.909
2.86
2.812
2.765
2.72
2.675
2.632
2.592
2.553
2.516
2.482
2.451
2.422
3.629
3.614
3.585
3.542
3.486
3.417
3.337
3.246
3.146
3.037
2.921
2.8
2.674
2.544
2.413
2.281
2.149
2.019
1.892
1.768
1.649
1.535
1.427
1.325
1.231
1.143
1.063
0.99
0.9243
0.8657
0.8142
0.7692
3.635
3.62
3.592
3.55
3.495
3.428
3.35
3.261
3.163
3.057
2.944
2.826
2.702
2.576
2.447
2.318
2.189
2.061
1.936
1.814
1.697
1.584
1.478
1.377
1.283
1.196
1.115
1.042
0.9762
0.9172
0.865
0.8193
3.64
3.626
3.599
3.558
3.505
3.44
3.364
3.278
3.184
3.081
2.971
2.856
2.736
2.613
2.487
2.361
2.235
2.111
1.988
1.869
1.754
1.643
1.538
1.439
1.345
1.259
1.179
1.106
1.039
0.98
0.9272
0.8809
3.646
3.632
3.606
3.566
3.515
3.453
3.38
3.297
3.206
3.106
3
2.889
2.773
2.654
2.533
2.411
2.289
2.168
2.048
1.932
1.82
1.711
1.608
1.51
1.418
1.333
1.253
1.18
1.114
1.055
1.001
0.9544
3.65
3.637
3.612
3.575
3.526
3.466
3.396
3.317
3.229
3.134
3.032
2.925
2.814
2.7
2.583
2.465
2.348
2.231
2.115
2.003
1.894
1.788
1.687
1.592
1.502
1.417
1.339
1.267
1.201
1.141
1.088
1.04
3.654
3.641
3.617
3.582
3.535
3.478
3.412
3.336
3.253
3.163
3.066
2.964
2.858
2.749
2.637
2.525
2.412
2.3
2.189
2.08
1.975
1.873
1.775
1.682
1.595
1.512
1.435
1.364
1.299
1.24
1.186
1.139
3.655
3.643
3.62
3.587
3.543
3.489
3.427
3.356
3.277
3.192
3.1
3.004
2.903
2.8
2.694
2.587
2.48
2.373
2.268
2.164
2.063
1.965
1.871
1.782
1.697
1.617
1.542
1.472
1.408
1.35
1.297
1.25
3.653
3.642
3.621
3.589
3.549
3.499
3.44
3.374
3.3
3.22
3.135
3.044
2.95
2.853
2.754
2.653
2.552
2.451
2.351
2.253
2.157
2.064
1.975
1.889
1.807
1.73
1.658
1.591
1.528
1.472
1.42
1.374
3.648
3.637
3.618
3.589
3.551
3.505
3.451
3.389
3.321
3.247
3.168
3.084
2.997
2.906
2.814
2.72
2.626
2.532
2.438
2.346
2.256
2.168
2.084
2.002
1.925
1.852
1.783
1.718
1.659
1.604
1.554
1.509
3.638
3.628
3.61
3.584
3.55
3.508
3.458
3.402
3.34
3.272
3.199
3.123
3.042
2.959
2.874
2.788
2.701
2.614
2.527
2.442
2.358
2.276
2.197
2.121
2.049
1.98
1.915
1.854
1.797
1.745
1.698
1.655
3.622
3.614
3.598
3.574
3.543
3.505
3.461
3.411
3.355
3.293
3.228
3.159
3.086
3.011
2.934
2.855
2.776
2.696
2.617
2.539
2.462
2.387
2.314
2.244
2.177
2.113
2.052
1.995
1.942
1.894
1.849
1.809
3.601
3.593
3.579
3.558
3.531
3.498
3.459
3.414
3.365
3.31
3.252
3.191
3.126
3.059
2.99
2.92
2.849
2.778
2.707
2.636
2.567
2.499
2.433
2.369
2.307
2.249
2.193
2.141
2.092
2.047
2.006
1.968
3.572
3.566
3.554
3.536
3.512
3.484
3.45
3.412
3.369
3.322
3.271
3.218
3.162
3.103
3.043
2.981
2.919
2.856
2.793
2.731
2.669
2.608
2.549
2.492
2.437
2.384
2.334
2.287
2.242
2.201
2.163
2.129
3.538
3.533
3.523
3.508
3.488
3.464
3.435
3.403
3.366
3.326
3.283
3.237
3.189
3.139
3.087
3.034
2.979
2.925
2.87
2.815
2.761
2.708
2.655
2.605
2.555
2.508
2.463
2.421
2.381
2.344
2.31
2.279
3.511
3.507
3.498
3.485
3.467
3.446
3.421
3.392
3.36
3.324
3.286
3.245
3.202
3.157
3.11
3.062
3.013
2.964
2.914
2.864
2.815
2.766
2.718
2.672
2.626
2.583
2.541
2.502
2.465
2.43
2.399
2.369
3.599
3.584
3.554
3.51
3.452
3.381
3.299
3.205
3.102
2.991
2.872
2.747
2.617
2.484
2.349
2.214
2.079
1.947
1.817
1.69
1.569
1.454
1.344
1.242
1.146
1.058
0.9778
0.9051
0.84
0.7822
0.7316
0.6878
3.605
3.59
3.561
3.518
3.461
3.393
3.312
3.221
3.12
3.011
2.895
2.773
2.647
2.517
2.385
2.252
2.12
1.99
1.862
1.738
1.618
1.504
1.396
1.294
1.199
1.111
1.031
0.9575
0.8917
0.8333
0.7818
0.737
3.611
3.597
3.568
3.526
3.472
3.405
3.327
3.239
3.141
3.036
2.923
2.804
2.681
2.555
2.427
2.297
2.168
2.041
1.916
1.794
1.677
1.564
1.457
1.357
1.262
1.175
1.094
1.021
0.9549
0.8958
0.8435
0.7978
3.617
3.603
3.576
3.535
3.483
3.418
3.343
3.258
3.164
3.062
2.953
2.839
2.72
2.598
2.474
2.348
2.223
2.099
1.978
1.859
1.744
1.634
1.529
1.43
1.336
1.25
1.17
1.096
1.03
0.9703
0.9173
0.8708
3.622
3.608
3.582
3.544
3.493
3.432
3.36
3.279
3.189
3.091
2.986
2.877
2.762
2.645
2.525
2.405
2.284
2.165
2.047
1.932
1.82
1.713
1.61
1.513
1.421
1.336
1.256
1.183
1.117
1.057
1.004
0.9567
3.625
3.612
3.588
3.551
3.503
3.445
3.377
3.299
3.214
3.121
3.021
2.917
2.808
2.696
2.581
2.466
2.35
2.236
2.122
2.012
1.904
1.8
1.7
1.606
1.516
1.432
1.354
1.282
1.216
1.157
1.103
1.056
3.627
3.615
3.591
3.557
3.512
3.457
3.392
3.319
3.239
3.151
3.057
2.958
2.855
2.749
2.641
2.531
2.421
2.312
2.204
2.098
1.995
1.895
1.799
1.707
1.621
1.539
1.463
1.393
1.328
1.269
1.216
1.169
3.625
3.614
3.592
3.56
3.518
3.466
3.406
3.338
3.263
3.18
3.093
3
2.903
2.804
2.702
2.599
2.495
2.392
2.29
2.19
2.092
1.997
1.905
1.817
1.734
1.656
1.582
1.514
1.451
1.393
1.341
1.294
3.62
3.609
3.589
3.559
3.521
3.473
3.418
3.355
3.285
3.209
3.127
3.042
2.952
2.859
2.765
2.669
2.572
2.475
2.38
2.286
2.193
2.104
2.017
1.934
1.855
1.781
1.71
1.645
1.584
1.528
1.478
1.432
3.609
3.6
3.582
3.555
3.519
3.476
3.425
3.368
3.304
3.235
3.16
3.082
2.999
2.914
2.827
2.739
2.65
2.561
2.472
2.385
2.299
2.216
2.135
2.057
1.983
1.913
1.846
1.784
1.726
1.673
1.625
1.582
3.594
3.585
3.569
3.545
3.513
3.474
3.429
3.377
3.32
3.257
3.19
3.119
3.045
2.968
2.889
2.808
2.727
2.646
2.565
2.485
2.407
2.33
2.256
2.184
2.115
2.05
1.988
1.93
1.876
1.826
1.781
1.74
3.572
3.564
3.55
3.529
3.501
3.467
3.427
3.381
3.33
3.275
3.215
3.152
3.086
3.018
2.948
2.876
2.803
2.73
2.658
2.586
2.515
2.445
2.378
2.313
2.25
2.19
2.134
2.08
2.03
1.984
1.942
1.904
3.543
3.536
3.524
3.506
3.482
3.452
3.418
3.379
3.335
3.287
3.235
3.181
3.123
3.064
3.002
2.939
2.875
2.811
2.747
2.683
2.62
2.559
2.498
2.44
2.384
2.33
2.279
2.231
2.186
2.144
2.105
2.07
3.508
3.503
3.492
3.477
3.457
3.432
3.403
3.37
3.333
3.292
3.248
3.201
3.152
3.101
3.048
2.993
2.938
2.882
2.826
2.771
2.715
2.661
2.608
2.556
2.506
2.458
2.413
2.369
2.329
2.291
2.256
2.225
3.48
3.476
3.467
3.453
3.436
3.414
3.388
3.359
3.326
3.29
3.251
3.209
3.165
3.119
3.072
3.023
2.973
2.923
2.872
2.822
2.771
2.722
2.673
2.626
2.58
2.535
2.493
2.453
2.415
2.38
2.348
2.318
3.571
3.555
3.524
3.479
3.42
3.347
3.262
3.166
3.06
2.945
2.823
2.695
2.562
2.426
2.288
2.149
2.012
1.876
1.743
1.615
1.492
1.374
1.264
1.16
1.064
0.9758
0.8956
0.8233
0.7589
0.7021
0.6527
0.6102
3.577
3.562
3.532
3.487
3.429
3.359
3.276
3.182
3.079
2.967
2.848
2.723
2.593
2.46
2.325
2.189
2.054
1.92
1.79
1.664
1.542
1.426
1.316
1.213
1.117
1.029
0.9484
0.8755
0.8102
0.7525
0.7019
0.6583
3.583
3.568
3.539
3.496
3.44
3.372
3.292
3.201
3.101
2.992
2.876
2.755
2.628
2.499
2.367
2.235
2.103
1.973
1.845
1.721
1.602
1.487
1.379
1.277
1.181
1.093
1.013
0.9392
0.8732
0.8145
0.7628
0.718
3.589
3.575
3.547
3.506
3.452
3.386
3.308
3.221
3.124
3.02
2.908
2.791
2.669
2.543
2.416
2.288
2.16
2.033
1.909
1.788
1.671
1.559
1.452
1.351
1.257
1.169
1.088
1.015
0.9483
0.8888
0.8361
0.7902
3.595
3.581
3.554
3.514
3.463
3.4
3.326
3.242
3.15
3.049
2.942
2.83
2.712
2.592
2.47
2.346
2.223
2.1
1.98
1.862
1.749
1.639
1.535
1.436
1.343
1.256
1.176
1.103
1.036
0.9759
0.9226
0.8757
3.598
3.585
3.56
3.522
3.473
3.413
3.343
3.264
3.176
3.08
2.978
2.871
2.759
2.644
2.527
2.409
2.291
2.173
2.058
1.944
1.835
1.729
1.627
1.531
1.44
1.355
1.276
1.203
1.136
1.076
1.023
0.9751
3.6
3.587
3.563
3.528
3.482
3.426
3.359
3.285
3.202
3.112
3.015
2.914
2.808
2.7
2.589
2.476
2.364
2.252
2.142
2.033
1.928
1.826
1.728
1.635
1.547
1.464
1.386
1.315
1.249
1.19
1.136
1.089
3.598
3.587
3.564
3.531
3.488
3.436
3.374
3.304
3.227
3.142
3.052
2.957
2.858
2.756
2.652
2.547
2.441
2.335
2.231
2.128
2.028
1.931
1.837
1.748
1.663
1.583
1.508
1.439
1.374
1.316
1.263
1.216
3.593
3.582
3.562
3.531
3.492
3.443
3.386
3.321
3.25
3.172
3.089
3.001
2.909
2.814
2.717
2.619
2.52
2.421
2.323
2.227
2.133
2.041
1.953
1.868
1.788
1.711
1.64
1.573
1.511
1.454
1.403
1.357
3.583
3.573
3.554
3.527
3.491
3.446
3.394
3.335
3.27
3.199
3.123
3.042
2.958
2.871
2.782
2.691
2.6
2.509
2.418
2.329
2.242
2.156
2.074
1.995
1.919
1.847
1.779
1.716
1.657
1.603
1.554
1.51
3.567
3.558
3.542
3.517
3.484
3.445
3.398
3.345
3.286
3.222
3.154
3.081
3.005
2.926
2.845
2.763
2.68
2.597
2.515
2.433
2.353
2.275
2.199
2.125
2.055
1.989
1.925
1.866
1.811
1.76
1.714
1.672
3.545
3.537
3.522
3.501
3.472
3.437
3.396
3.349
3.298
3.241
3.18
3.116
3.048
2.978
2.906
2.833
2.759
2.685
2.61
2.537
2.464
2.394
2.325
2.258
2.194
2.133
2.076
2.021
1.97
1.924
1.881
1.842
3.515
3.509
3.496
3.477
3.453
3.423
3.388
3.347
3.303
3.254
3.201
3.145
3.087
3.026
2.963
2.899
2.834
2.768
2.703
2.638
2.574
2.511
2.449
2.39
2.333
2.278
2.226
2.176
2.131
2.088
2.049
2.013
3.479
3.474
3.463
3.448
3.427
3.402
3.372
3.338
3.301
3.259
3.214
3.167
3.116
3.064
3.01
2.955
2.899
2.842
2.785
2.728
2.672
2.617
2.562
2.51
2.459
2.41
2.364
2.32
2.278
2.24
2.205
2.172
3.451
3.447
3.437
3.424
3.406
3.384
3.357
3.327
3.294
3.257
3.218
3.175
3.13
3.084
3.035
2.986
2.935