/*--------------------------------*- C++ -*----------------------------------*\
  =========                 |
  \\      /  F ield         | OpenFOAM: The Open Source CFD Toolbox
   \\    /   O peration     | Website:  https://openfoam.org
    \\  /    A nd           | Version:  6
     \\/     M anipulation  |
\*---------------------------------------------------------------------------*/
FoamFile
{
    version     2.0;
    format      ascii;
    class       volScalarField;
    location    "20";
    object      Umag;
}
// * * * * * * * * * * * * * * * * * * * * * * * * * * * * * * * * * * * * * //

dimensions      [0 0 0 0 0 0 0];

internalField   nonuniform List<scalar> 
16128
(
1.543e-05
1.658e-05
1.784e-05
1.922e-05
2.071e-05
2.233e-05
2.407e-05
2.594e-05
2.794e-05
3.005e-05
3.226e-05
3.457e-05
3.693e-05
3.934e-05
4.175e-05
4.412e-05
4.642e-05
1.437e-05
1.541e-05
1.655e-05
1.78e-05
1.917e-05
2.065e-05
2.226e-05
2.399e-05
2.585e-05
2.783e-05
2.992e-05
3.211e-05
3.439e-05
3.673e-05
3.911e-05
4.149e-05
4.384e-05
4.611e-05
1.339e-05
1.432e-05
1.535e-05
1.649e-05
1.772e-05
1.908e-05
2.054e-05
2.213e-05
2.384e-05
2.566e-05
2.761e-05
2.966e-05
3.181e-05
3.405e-05
3.634e-05
3.867e-05
4.1e-05
4.329e-05
4.551e-05
1.25e-05
1.334e-05
1.426e-05
1.528e-05
1.639e-05
1.761e-05
1.894e-05
2.038e-05
2.194e-05
2.361e-05
2.539e-05
2.729e-05
2.929e-05
3.138e-05
3.356e-05
3.578e-05
3.804e-05
4.029e-05
4.251e-05
4.464e-05
5.476e-06
7.347e-06
7.607e-06
7.784e-06
8.007e-06
8.291e-06
8.638e-06
9.052e-06
9.535e-06
1.009e-05
1.073e-05
1.145e-05
1.226e-05
1.316e-05
1.417e-05
1.529e-05
1.653e-05
1.789e-05
1.939e-05
2.103e-05
2.282e-05
2.477e-05
2.687e-05
2.913e-05
3.153e-05
3.408e-05
3.675e-05
3.952e-05
4.236e-05
4.521e-05
4.804e-05
5.079e-05
5.475e-06
7.345e-06
7.605e-06
7.781e-06
8.004e-06
8.287e-06
8.633e-06
9.046e-06
9.528e-06
1.008e-05
1.072e-05
1.143e-05
1.224e-05
1.314e-05
1.415e-05
1.526e-05
1.649e-05
1.785e-05
1.934e-05
2.097e-05
2.274e-05
2.467e-05
2.675e-05
2.899e-05
3.137e-05
3.39e-05
3.654e-05
3.927e-05
4.207e-05
4.489e-05
4.768e-05
5.039e-05
5.472e-06
7.341e-06
7.601e-06
7.776e-06
7.998e-06
8.28e-06
8.624e-06
9.035e-06
9.514e-06
1.007e-05
1.07e-05
1.141e-05
1.221e-05
1.31e-05
1.41e-05
1.52e-05
1.642e-05
1.776e-05
1.923e-05
2.084e-05
2.259e-05
2.448e-05
2.653e-05
2.873e-05
3.106e-05
3.353e-05
3.612e-05
3.879e-05
4.152e-05
4.427e-05
4.699e-05
4.963e-05
5.468e-06
7.335e-06
7.594e-06
7.768e-06
7.989e-06
8.269e-06
8.611e-06
9.018e-06
9.494e-06
1.004e-05
1.067e-05
1.137e-05
1.216e-05
1.304e-05
1.403e-05
1.511e-05
1.631e-05
1.763e-05
1.907e-05
2.065e-05
2.236e-05
2.421e-05
2.621e-05
2.834e-05
3.061e-05
3.301e-05
3.551e-05
3.809e-05
4.072e-05
4.337e-05
4.599e-05
4.852e-05
5.068e-06
6.803e-06
7.054e-06
7.235e-06
7.466e-06
7.76e-06
8.12e-06
8.55e-06
9.054e-06
9.636e-06
1.03e-05
1.106e-05
1.191e-05
1.287e-05
1.395e-05
1.515e-05
1.648e-05
1.796e-05
1.96e-05
2.141e-05
2.339e-05
2.557e-05
2.794e-05
3.051e-05
3.327e-05
3.623e-05
3.935e-05
4.262e-05
4.599e-05
4.942e-05
5.283e-05
5.616e-05
5.066e-06
6.801e-06
7.052e-06
7.233e-06
7.463e-06
7.756e-06
8.115e-06
8.544e-06
9.046e-06
9.627e-06
1.029e-05
1.104e-05
1.19e-05
1.285e-05
1.392e-05
1.511e-05
1.644e-05
1.791e-05
1.954e-05
2.133e-05
2.33e-05
2.545e-05
2.78e-05
3.034e-05
3.308e-05
3.6e-05
3.908e-05
4.231e-05
4.563e-05
4.901e-05
5.237e-05
5.565e-05
5.063e-06
6.797e-06
7.048e-06
7.227e-06
7.457e-06
7.748e-06
8.106e-06
8.532e-06
9.031e-06
9.608e-06
1.027e-05
1.102e-05
1.186e-05
1.281e-05
1.387e-05
1.505e-05
1.636e-05
1.781e-05
1.941e-05
2.118e-05
2.311e-05
2.523e-05
2.753e-05
3.002e-05
3.27e-05
3.555e-05
3.856e-05
4.17e-05
4.494e-05
4.822e-05
5.148e-05
5.466e-05
5.059e-06
6.791e-06
7.041e-06
7.22e-06
7.448e-06
7.737e-06
8.092e-06
8.515e-06
9.009e-06
9.581e-06
1.023e-05
1.097e-05
1.181e-05
1.274e-05
1.379e-05
1.495e-05
1.623e-05
1.766e-05
1.923e-05
2.095e-05
2.284e-05
2.491e-05
2.714e-05
2.956e-05
3.215e-05
3.49e-05
3.781e-05
4.083e-05
4.393e-05
4.708e-05
5.02e-05
5.324e-05
4.653e-06
6.25e-06
6.493e-06
6.678e-06
6.916e-06
7.22e-06
7.593e-06
8.038e-06
8.562e-06
9.17e-06
9.867e-06
1.066e-05
1.156e-05
1.258e-05
1.373e-05
1.501e-05
1.645e-05
1.805e-05
1.985e-05
2.184e-05
2.404e-05
2.648e-05
2.917e-05
3.211e-05
3.531e-05
3.876e-05
4.245e-05
4.635e-05
5.041e-05
5.456e-05
5.873e-05
6.283e-05
4.652e-06
6.248e-06
6.491e-06
6.675e-06
6.913e-06
7.216e-06
7.587e-06
8.032e-06
8.554e-06
9.159e-06
9.854e-06
1.065e-05
1.154e-05
1.256e-05
1.369e-05
1.497e-05
1.64e-05
1.799e-05
1.977e-05
2.174e-05
2.393e-05
2.635e-05
2.9e-05
3.191e-05
3.507e-05
3.848e-05
4.211e-05
4.596e-05
4.995e-05
5.404e-05
5.814e-05
6.216e-05
4.649e-06
6.244e-06
6.486e-06
6.67e-06
6.906e-06
7.208e-06
7.577e-06
8.019e-06
8.538e-06
9.139e-06
9.829e-06
1.061e-05
1.15e-05
1.251e-05
1.363e-05
1.489e-05
1.63e-05
1.788e-05
1.963e-05
2.157e-05
2.371e-05
2.608e-05
2.868e-05
3.152e-05
3.461e-05
3.792e-05
4.146e-05
4.519e-05
4.907e-05
5.302e-05
5.699e-05
6.088e-05
4.645e-06
6.239e-06
6.48e-06
6.662e-06
6.897e-06
7.196e-06
7.563e-06
8.001e-06
8.515e-06
9.11e-06
9.792e-06
1.057e-05
1.144e-05
1.243e-05
1.354e-05
1.478e-05
1.617e-05
1.771e-05
1.942e-05
2.131e-05
2.34e-05
2.57e-05
2.822e-05
3.096e-05
3.394e-05
3.713e-05
4.053e-05
4.41e-05
4.78e-05
5.157e-05
5.535e-05
5.904e-05
4.235e-06
5.693e-06
5.927e-06
6.115e-06
6.361e-06
6.674e-06
7.058e-06
7.52e-06
8.063e-06
8.695e-06
9.424e-06
1.026e-05
1.121e-05
1.228e-05
1.35e-05
1.488e-05
1.643e-05
1.817e-05
2.013e-05
2.233e-05
2.479e-05
2.754e-05
3.059e-05
3.398e-05
3.77e-05
4.177e-05
4.617e-05
5.087e-05
5.582e-05
6.093e-05
6.61e-05
7.12e-05
4.234e-06
5.691e-06
5.924e-06
6.113e-06
6.357e-06
6.669e-06
7.053e-06
7.513e-06
8.055e-06
8.684e-06
9.409e-06
1.024e-05
1.118e-05
1.225e-05
1.346e-05
1.483e-05
1.637e-05
1.81e-05
2.004e-05
2.222e-05
2.466e-05
2.737e-05
3.039e-05
3.373e-05
3.741e-05
4.141e-05
4.574e-05
5.037e-05
5.523e-05
6.025e-05
6.532e-05
7.033e-05
4.231e-06
5.688e-06
5.92e-06
6.107e-06
6.351e-06
6.661e-06
7.043e-06
7.5e-06
8.038e-06
8.663e-06
9.382e-06
1.02e-05
1.114e-05
1.22e-05
1.34e-05
1.474e-05
1.626e-05
1.797e-05
1.988e-05
2.201e-05
2.44e-05
2.706e-05
3.001e-05
3.326e-05
3.684e-05
4.073e-05
4.493e-05
4.94e-05
5.41e-05
5.894e-05
6.383e-05
6.864e-05
4.227e-06
5.682e-06
5.913e-06
6.1e-06
6.341e-06
6.649e-06
7.027e-06
7.48e-06
8.013e-06
8.631e-06
9.342e-06
1.015e-05
1.108e-05
1.212e-05
1.329e-05
1.462e-05
1.61e-05
1.777e-05
1.963e-05
2.171e-05
2.403e-05
2.66e-05
2.945e-05
3.259e-05
3.602e-05
3.975e-05
4.376e-05
4.801e-05
5.248e-05
5.707e-05
6.169e-05
6.624e-05
3.816e-06
5.136e-06
5.36e-06
5.552e-06
5.804e-06
6.125e-06
6.522e-06
6.998e-06
7.561e-06
8.217e-06
8.976e-06
9.847e-06
1.084e-05
1.198e-05
1.328e-05
1.475e-05
1.642e-05
1.831e-05
2.046e-05
2.289e-05
2.564e-05
2.874e-05
3.223e-05
3.614e-05
4.051e-05
4.534e-05
5.064e-05
5.638e-05
6.249e-05
6.888e-05
7.54e-05
8.187e-05
3.815e-06
5.134e-06
5.358e-06
5.549e-06
5.8e-06
6.121e-06
6.516e-06
6.991e-06
7.551e-06
8.205e-06
8.96e-06
9.828e-06
1.082e-05
1.195e-05
1.324e-05
1.47e-05
1.635e-05
1.823e-05
2.036e-05
2.276e-05
2.548e-05
2.854e-05
3.199e-05
3.585e-05
4.015e-05
4.49e-05
5.011e-05
5.574e-05
6.173e-05
6.799e-05
7.437e-05
8.071e-05
3.813e-06
5.13e-06
5.353e-06
5.544e-06
5.794e-06
6.113e-06
6.505e-06
6.977e-06
7.533e-06
8.182e-06
8.931e-06
9.79e-06
1.077e-05
1.189e-05
1.316e-05
1.46e-05
1.623e-05
1.808e-05
2.016e-05
2.252e-05
2.518e-05
2.817e-05
3.153e-05
3.528e-05
3.945e-05
4.405e-05
4.908e-05
5.45e-05
6.027e-05
6.628e-05
7.24e-05
7.847e-05
3.809e-06
5.125e-06
5.347e-06
5.536e-06
5.784e-06
6.1e-06
6.489e-06
6.956e-06
7.507e-06
8.148e-06
8.887e-06
9.735e-06
1.07e-05
1.18e-05
1.305e-05
1.446e-05
1.605e-05
1.785e-05
1.989e-05
2.217e-05
2.475e-05
2.763e-05
3.086e-05
3.446e-05
3.845e-05
4.283e-05
4.761e-05
5.274e-05
5.818e-05
6.384e-05
6.959e-05
7.529e-05
3.401e-06
4.583e-06
4.797e-06
4.992e-06
5.25e-06
5.58e-06
5.987e-06
6.478e-06
7.058e-06
7.738e-06
8.527e-06
9.437e-06
1.048e-05
1.168e-05
1.306e-05
1.463e-05
1.642e-05
1.848e-05
2.083e-05
2.352e-05
2.659e-05
3.011e-05
3.411e-05
3.866e-05
4.382e-05
4.961e-05
5.605e-05
6.314e-05
7.081e-05
7.892e-05
8.73e-05
9.567e-05
3.4e-06
4.581e-06
4.795e-06
4.99e-06
5.246e-06
5.575e-06
5.981e-06
6.47e-06
7.048e-06
7.725e-06
8.51e-06
9.416e-06
1.046e-05
1.165e-05
1.301e-05
1.457e-05
1.635e-05
1.839e-05
2.071e-05
2.337e-05
2.641e-05
2.988e-05
3.382e-05
3.831e-05
4.337e-05
4.905e-05
5.537e-05
6.231e-05
6.981e-05
7.775e-05
8.592e-05
9.409e-05
3.397e-06
4.577e-06
4.791e-06
4.984e-06
5.24e-06
5.567e-06
5.97e-06
6.455e-06
7.029e-06
7.701e-06
8.478e-06
9.375e-06
1.04e-05
1.158e-05
1.293e-05
1.446e-05
1.621e-05
1.821e-05
2.049e-05
2.309e-05
2.606e-05
2.944e-05
3.327e-05
3.761e-05
4.251e-05
4.799e-05
5.407e-05
6.073e-05
6.791e-05
7.549e-05
8.329e-05
9.107e-05
3.394e-06
4.572e-06
4.785e-06
4.977e-06
5.23e-06
5.554e-06
5.954e-06
6.434e-06
7.002e-06
7.665e-06
8.432e-06
9.315e-06
1.033e-05
1.148e-05
1.28e-05
1.43e-05
1.601e-05
1.796e-05
2.017e-05
2.269e-05
2.555e-05
2.88e-05
3.248e-05
3.662e-05
4.128e-05
4.648e-05
5.222e-05
5.848e-05
6.521e-05
7.229e-05
7.955e-05
8.68e-05
2.992e-06
4.038e-06
4.243e-06
4.441e-06
4.704e-06
5.041e-06
5.459e-06
5.962e-06
6.56e-06
7.262e-06
8.08e-06
9.028e-06
1.012e-05
1.139e-05
1.284e-05
1.451e-05
1.645e-05
1.867e-05
2.125e-05
2.422e-05
2.767e-05
3.165e-05
3.626e-05
4.158e-05
4.77e-05
5.47e-05
6.262e-05
7.15e-05
8.126e-05
9.177e-05
0.0001028
0.0001138
2.991e-06
4.037e-06
4.241e-06
4.438e-06
4.701e-06
5.037e-06
5.453e-06
5.954e-06
6.55e-06
7.249e-06
8.063e-06
9.005e-06
1.009e-05
1.135e-05
1.279e-05
1.445e-05
1.637e-05
1.857e-05
2.112e-05
2.406e-05
2.745e-05
3.138e-05
3.592e-05
4.115e-05
4.715e-05
5.4e-05
6.176e-05
7.043e-05
7.996e-05
9.019e-05
0.0001009
0.0001116
2.989e-06
4.033e-06
4.237e-06
4.433e-06
4.694e-06
5.028e-06
5.441e-06
5.939e-06
6.53e-06
7.223e-06
8.029e-06
8.961e-06
1.004e-05
1.127e-05
1.27e-05
1.433e-05
1.621e-05
1.837e-05
2.086e-05
2.373e-05
2.704e-05
3.086e-05
3.526e-05
4.031e-05
4.609e-05
5.267e-05
6.01e-05
6.838e-05
7.745e-05
8.717e-05
9.731e-05
0.0001075
2.986e-06
4.029e-06
4.231e-06
4.426e-06
4.684e-06
5.015e-06
5.424e-06
5.917e-06
6.501e-06
7.185e-06
7.979e-06
8.897e-06
9.954e-06
1.117e-05
1.256e-05
1.416e-05
1.599e-05
1.809e-05
2.05e-05
2.327e-05
2.645e-05
3.011e-05
3.431e-05
3.911e-05
4.458e-05
5.078e-05
5.775e-05
6.547e-05
7.391e-05
8.291e-05
9.227e-05
0.0001017
2.594e-06
3.508e-06
3.703e-06
3.904e-06
4.171e-06
4.515e-06
4.942e-06
5.458e-06
6.072e-06
6.795e-06
7.641e-06
8.625e-06
9.768e-06
1.109e-05
1.263e-05
1.441e-05
1.648e-05
1.89e-05
2.171e-05
2.5e-05
2.886e-05
3.339e-05
3.871e-05
4.495e-05
5.226e-05
6.077e-05
7.063e-05
8.189e-05
9.455e-05
0.0001084
0.0001232
0.0001382
2.593e-06
3.506e-06
3.701e-06
3.901e-06
4.168e-06
4.511e-06
4.936e-06
5.449e-06
6.061e-06
6.781e-06
7.622e-06
8.601e-06
9.736e-06
1.105e-05
1.258e-05
1.434e-05
1.64e-05
1.878e-05
2.156e-05
2.481e-05
2.861e-05
3.307e-05
3.83e-05
4.442e-05
5.157e-05
5.99e-05
6.952e-05
8.049e-05
9.28e-05
0.0001063
0.0001206
0.0001351
2.591e-06
3.503e-06
3.698e-06
3.896e-06
4.161e-06
4.502e-06
4.924e-06
5.434e-06
6.04e-06
6.753e-06
7.586e-06
8.554e-06
9.675e-06
1.097e-05
1.247e-05
1.421e-05
1.622e-05
1.856e-05
2.128e-05
2.444e-05
2.814e-05
3.246e-05
3.75e-05
4.34e-05
5.027e-05
5.823e-05
6.74e-05
7.782e-05
8.947e-05
0.0001022
0.0001157
0.0001293
2.588e-06
3.499e-06
3.692e-06
3.889e-06
4.152e-06
4.489e-06
4.907e-06
5.411e-06
6.01e-06
6.713e-06
7.533e-06
8.485e-06
9.585e-06
1.086e-05
1.232e-05
1.402e-05
1.597e-05
1.824e-05
2.086e-05
2.391e-05
2.745e-05
3.157e-05
3.637e-05
4.195e-05
4.841e-05
5.586e-05
6.44e-05
7.405e-05
8.478e-05
9.644e-05
0.0001087
0.0001212
2.21e-06
2.997e-06
3.183e-06
3.385e-06
3.657e-06
4.007e-06
4.441e-06
4.968e-06
5.597e-06
6.341e-06
7.213e-06
8.233e-06
9.423e-06
1.081e-05
1.243e-05
1.432e-05
1.654e-05
1.915e-05
2.222e-05
2.586e-05
3.018e-05
3.532e-05
4.146e-05
4.88e-05
5.757e-05
6.802e-05
8.039e-05
9.488e-05
0.0001116
0.0001303
0.0001506
0.0001716
2.209e-06
2.996e-06
3.181e-06
3.383e-06
3.654e-06
4.002e-06
4.435e-06
4.96e-06
5.586e-06
6.326e-06
7.193e-06
8.207e-06
9.388e-06
1.077e-05
1.237e-05
1.425e-05
1.644e-05
1.902e-05
2.205e-05
2.564e-05
2.989e-05
3.494e-05
4.097e-05
4.816e-05
5.673e-05
6.692e-05
7.896e-05
9.304e-05
0.0001092
0.0001274
0.000147
0.0001673
2.207e-06
2.993e-06
3.178e-06
3.378e-06
3.647e-06
3.994e-06
4.423e-06
4.944e-06
5.564e-06
6.297e-06
7.155e-06
8.156e-06
9.322e-06
1.068e-05
1.226e-05
1.41e-05
1.625e-05
1.877e-05
2.173e-05
2.521e-05
2.934e-05
3.422e-05
4.003e-05
4.692e-05
5.512e-05
6.482e-05
7.623e-05
8.952e-05
0.0001047
0.0001217
0.0001401
0.000159
2.205e-06
2.989e-06
3.173e-06
3.372e-06
3.638e-06
3.981e-06
4.406e-06
4.92e-06
5.533e-06
6.255e-06
7.099e-06
8.083e-06
9.226e-06
1.055e-05
1.209e-05
1.389e-05
1.597e-05
1.841e-05
2.126e-05
2.46e-05
2.854e-05
3.319e-05
3.868e-05
4.517e-05
5.283e-05
6.185e-05
7.239e-05
8.458e-05
9.846e-05
0.0001139
0.0001304
0.0001474
1.844e-06
2.511e-06
2.688e-06
2.892e-06
3.167e-06
3.522e-06
3.963e-06
4.5e-06
5.143e-06
5.904e-06
6.802e-06
7.855e-06
9.09e-06
1.054e-05
1.224e-05
1.424e-05
1.661e-05
1.942e-05
2.276e-05
2.677e-05
3.16e-05
3.744e-05
4.453e-05
5.317e-05
6.373e-05
7.661e-05
9.228e-05
0.0001112
0.0001336
0.0001595
0.0001884
0.0002187
1.844e-06
2.51e-06
2.686e-06
2.889e-06
3.164e-06
3.517e-06
3.957e-06
4.492e-06
5.131e-06
5.889e-06
6.781e-06
7.827e-06
9.053e-06
1.049e-05
1.218e-05
1.416e-05
1.65e-05
1.927e-05
2.257e-05
2.652e-05
3.127e-05
3.7e-05
4.394e-05
5.239e-05
6.269e-05
7.523e-05
9.044e-05
0.0001087
0.0001304
0.0001554
0.0001833
0.0002125
1.842e-06
2.507e-06
2.683e-06
2.885e-06
3.157e-06
3.509e-06
3.945e-06
4.475e-06
5.109e-06
5.859e-06
6.741e-06
7.774e-06
8.983e-06
1.04e-05
1.205e-05
1.4e-05
1.629e-05
1.9e-05
2.221e-05
2.604e-05
3.063e-05
3.615e-05
4.282e-05
5.09e-05
6.07e-05
7.258e-05
8.691e-05
0.0001041
0.0001243
0.0001476
0.0001733
0.0002004
1.84e-06
2.504e-06
2.679e-06
2.879e-06
3.148e-06
3.496e-06
3.927e-06
4.451e-06
5.076e-06
5.815e-06
6.682e-06
7.696e-06
8.88e-06
1.026e-05
1.188e-05
1.377e-05
1.598e-05
1.859e-05
2.168e-05
2.535e-05
2.972e-05
3.495e-05
4.122e-05
4.878e-05
5.789e-05
6.885e-05
8.197e-05
9.756e-05
0.0001158
0.0001366
0.0001595
0.0001835
1.502e-06
2.055e-06
2.223e-06
2.428e-06
2.706e-06
3.065e-06
3.513e-06
4.059e-06
4.713e-06
5.492e-06
6.412e-06
7.496e-06
8.774e-06
1.028e-05
1.206e-05
1.417e-05
1.669e-05
1.97e-05
2.334e-05
2.774e-05
3.311e-05
3.971e-05
4.788e-05
5.805e-05
7.076e-05
8.671e-05
0.0001067
0.0001316
0.0001622
0.000199
0.0002414
0.0002872
1.501e-06
2.054e-06
2.222e-06
2.426e-06
2.703e-06
3.061e-06
3.507e-06
4.05e-06
4.701e-06
5.475e-06
6.39e-06
7.467e-06
8.736e-06
1.023e-05
1.199e-05
1.408e-05
1.657e-05
1.955e-05
2.312e-05
2.745e-05
3.273e-05
3.92e-05
4.719e-05
5.711e-05
6.949e-05
8.496e-05
0.0001043
0.0001283
0.0001579
0.0001932
0.000234
0.0002781
1.5e-06
2.052e-06
2.219e-06
2.422e-06
2.697e-06
3.052e-06
3.495e-06
4.033e-06
4.678e-06
5.444e-06
6.348e-06
7.411e-06
8.661e-06
1.013e-05
1.186e-05
1.391e-05
1.634e-05
1.924e-05
2.272e-05
2.691e-05
3.2e-05
3.822e-05
4.587e-05
5.532e-05
6.704e-05
8.162e-05
9.974e-05
0.0001221
0.0001495
0.0001821
0.0002195
0.00026
1.498e-06
2.049e-06
2.215e-06
2.416e-06
2.688e-06
3.04e-06
3.477e-06
4.008e-06
4.645e-06
5.398e-06
6.286e-06
7.329e-06
8.552e-06
9.986e-06
1.167e-05
1.366e-05
1.601e-05
1.88e-05
2.213e-05
2.613e-05
3.096e-05
3.683e-05
4.399e-05
5.278e-05
6.36e-05
7.695e-05
9.338e-05
0.0001135
0.0001378
0.0001665
0.0001993
0.0002344
1.186e-06
1.635e-06
1.795e-06
2.001e-06
2.281e-06
2.644e-06
3.097e-06
3.65e-06
4.315e-06
5.108e-06
6.049e-06
7.162e-06
8.48e-06
1.004e-05
1.19e-05
1.412e-05
1.678e-05
2e-05
2.392e-05
2.873e-05
3.468e-05
4.211e-05
5.147e-05
6.338e-05
7.865e-05
9.836e-05
0.0001239
0.000157
0.0001995
0.000253
0.0003177
0.0003905
1.185e-06
1.634e-06
1.794e-06
1.999e-06
2.278e-06
2.639e-06
3.09e-06
3.641e-06
4.302e-06
5.091e-06
6.026e-06
7.132e-06
8.439e-06
9.987e-06
1.183e-05
1.402e-05
1.665e-05
1.983e-05
2.368e-05
2.841e-05
3.425e-05
4.152e-05
5.066e-05
6.226e-05
7.709e-05
9.617e-05
0.0001208
0.0001527
0.0001935
0.0002448
0.0003069
0.0003769
1.184e-06
1.632e-06
1.791e-06
1.995e-06
2.272e-06
2.631e-06
3.078e-06
3.624e-06
4.279e-06
5.059e-06
5.982e-06
7.073e-06
8.36e-06
9.882e-06
1.169e-05
1.383e-05
1.64e-05
1.949e-05
2.323e-05
2.78e-05
3.342e-05
4.039e-05
4.911e-05
6.012e-05
7.41e-05
9.199e-05
0.000115
0.0001444
0.0001819
0.0002288
0.0002853
0.000349
1.183e-06
1.63e-06
1.788e-06
1.989e-06
2.264e-06
2.618e-06
3.06e-06
3.599e-06
4.244e-06
5.011e-06
5.918e-06
6.987e-06
8.245e-06
9.728e-06
1.148e-05
1.356e-05
1.604e-05
1.9e-05
2.258e-05
2.693e-05
3.224e-05
3.879e-05
4.692e-05
5.71e-05
6.992e-05
8.616e-05
0.0001068
0.0001329
0.0001658
0.0002064
0.0002548
0.0003089
9.004e-07
1.255e-06
1.408e-06
1.615e-06
1.896e-06
2.262e-06
2.719e-06
3.278e-06
3.952e-06
4.758e-06
5.718e-06
6.857e-06
8.211e-06
9.824e-06
1.175e-05
1.407e-05
1.688e-05
2.029e-05
2.45e-05
2.971e-05
3.625e-05
4.454e-05
5.519e-05
6.902e-05
8.722e-05
0.0001115
0.000144
0.0001881
0.0002477
0.0003272
0.0004297
0.0005524
9e-07
1.254e-06
1.407e-06
1.613e-06
1.894e-06
2.258e-06
2.713e-06
3.269e-06
3.94e-06
4.741e-06
5.694e-06
6.825e-06
8.168e-06
9.766e-06
1.168e-05
1.397e-05
1.674e-05
2.01e-05
2.424e-05
2.936e-05
3.577e-05
4.387e-05
5.425e-05
6.77e-05
8.534e-05
0.0001087
0.0001401
0.0001824
0.0002395
0.0003156
0.0004139
0.000532
8.993e-07
1.253e-06
1.405e-06
1.609e-06
1.888e-06
2.249e-06
2.701e-06
3.252e-06
3.916e-06
4.708e-06
5.649e-06
6.764e-06
8.085e-06
9.655e-06
1.153e-05
1.377e-05
1.646e-05
1.974e-05
2.374e-05
2.868e-05
3.484e-05
4.259e-05
5.246e-05
6.517e-05
8.174e-05
0.0001036
0.0001326
0.0001715
0.0002235
0.0002925
0.0003812
0.0004879
8.983e-07
1.251e-06
1.402e-06
1.604e-06
1.88e-06
2.237e-06
2.683e-06
3.227e-06
3.88e-06
4.659e-06
5.582e-06
6.674e-06
7.965e-06
9.493e-06
1.131e-05
1.348e-05
1.607e-05
1.921e-05
2.303e-05
2.772e-05
3.352e-05
4.077e-05
4.993e-05
6.163e-05
7.671e-05
9.636e-05
0.0001222
0.0001562
0.0002012
0.0002598
0.0003341
0.0004224
6.492e-07
9.211e-07
1.068e-06
1.274e-06
1.558e-06
1.925e-06
2.386e-06
2.95e-06
3.632e-06
4.449e-06
5.424e-06
6.586e-06
7.972e-06
9.63e-06
1.162e-05
1.403e-05
1.697e-05
2.057e-05
2.504e-05
3.065e-05
3.776e-05
4.692e-05
5.887e-05
7.473e-05
9.612e-05
0.0001255
0.0001666
0.000225
0.0003086
0.0004284
0.000596
0.0008146
6.49e-07
9.206e-07
1.067e-06
1.273e-06
1.555e-06
1.921e-06
2.38e-06
2.941e-06
3.619e-06
4.431e-06
5.399e-06
6.553e-06
7.927e-06
9.57e-06
1.154e-05
1.392e-05
1.682e-05
2.037e-05
2.476e-05
3.026e-05
3.723e-05
4.617e-05
5.78e-05
7.319e-05
9.389e-05
0.0001222
0.0001617
0.0002176
0.0002976
0.0004121
0.0005729
0.0007842
6.486e-07
9.197e-07
1.065e-06
1.269e-06
1.55e-06
1.913e-06
2.367e-06
2.924e-06
3.594e-06
4.397e-06
5.353e-06
6.489e-06
7.841e-06
9.453e-06
1.138e-05
1.371e-05
1.653e-05
1.998e-05
2.423e-05
2.952e-05
3.62e-05
4.473e-05
5.577e-05
7.027e-05
8.963e-05
0.0001159
0.0001523
0.0002032
0.0002757
0.0003787
0.000523
0.0007133
6.479e-07
9.182e-07
1.062e-06
1.265e-06
1.542e-06
1.901e-06
2.35e-06
2.898e-06
3.558e-06
4.347e-06
5.284e-06
6.396e-06
7.715e-06
9.284e-06
1.116e-05
1.34e-05
1.611e-05
1.941e-05
2.346e-05
2.847e-05
3.475e-05
4.27e-05
5.29e-05
6.617e-05
8.368e-05
0.0001072
0.0001391
0.0001833
0.0002448
0.0003308
0.0004489
0.000602
4.358e-07
6.372e-07
7.785e-07
9.85e-07
1.269e-06
1.639e-06
2.102e-06
2.67e-06
3.358e-06
4.184e-06
5.172e-06
6.353e-06
7.766e-06
9.464e-06
1.151e-05
1.4e-05
1.705e-05
2.082e-05
2.553e-05
3.149e-05
3.914e-05
4.91e-05
6.229e-05
8.012e-05
0.0001047
0.0001396
0.0001901
0.0002657
0.0003814
0.0005611
0.0008388
0.001245
4.356e-07
6.369e-07
7.777e-07
9.835e-07
1.267e-06
1.634e-06
2.095e-06
2.661e-06
3.345e-06
4.166e-06
5.147e-06
6.319e-06
7.72e-06
9.401e-06
1.143e-05
1.389e-05
1.689e-05
2.06e-05
2.523e-05
3.108e-05
3.856e-05
4.827e-05
6.11e-05
7.838e-05
0.0001022
0.0001357
0.0001842
0.0002564
0.0003669
0.0005388
0.0008059
0.001201
4.354e-07
6.362e-07
7.761e-07
9.804e-07
1.261e-06
1.626e-06
2.083e-06
2.643e-06
3.32e-06
4.131e-06
5.099e-06
6.253e-06
7.63e-06
9.279e-06
1.126e-05
1.366e-05
1.659e-05
2.019e-05
2.466e-05
3.028e-05
3.744e-05
4.669e-05
5.883e-05
7.507e-05
9.724e-05
0.0001282
0.0001726
0.0002382
0.0003376
0.0004914
0.0007303
0.001086
4.35e-07
6.352e-07
7.738e-07
9.76e-07
1.254e-06
1.615e-06
2.066e-06
2.618e-06
3.283e-06
4.08e-06
5.029e-06
6.158e-06
7.501e-06
9.104e-06
1.102e-05
1.334e-05
1.615e-05
1.959e-05
2.384e-05
2.915e-05
3.586e-05
4.446e-05
5.564e-05
7.043e-05
9.038e-05
0.0001178
0.0001566
0.0002126
0.0002959
0.0004219
0.0006135
0.000893
2.628e-07
4.072e-07
5.439e-07
7.505e-07
1.035e-06
1.406e-06
1.871e-06
2.442e-06
3.134e-06
3.967e-06
4.965e-06
6.161e-06
7.596e-06
9.325e-06
1.142e-05
1.397e-05
1.712e-05
2.102e-05
2.594e-05
3.219e-05
4.028e-05
5.092e-05
6.517e-05
8.468e-05
0.0001121
0.0001518
0.0002113
0.0003045
0.0004569
0.0007158
0.001167
0.001919
2.628e-07
4.07e-07
5.432e-07
7.49e-07
1.033e-06
1.402e-06
1.864e-06
2.433e-06
3.121e-06
3.949e-06
4.94e-06
6.126e-06
7.549e-06
9.26e-06
1.133e-05
1.385e-05
1.695e-05
2.08e-05
2.562e-05
3.175e-05
3.966e-05
5.003e-05
6.387e-05
8.277e-05
0.0001092
0.0001474
0.0002044
0.0002935
0.0004389
0.0006867
0.001122
0.001858
2.627e-07
4.066e-07
5.419e-07
7.462e-07
1.028e-06
1.394e-06
1.852e-06
2.415e-06
3.096e-06
3.913e-06
4.891e-06
6.059e-06
7.457e-06
9.135e-06
1.116e-05
1.362e-05
1.663e-05
2.036e-05
2.502e-05
3.091e-05
3.847e-05
4.833e-05
6.141e-05
7.913e-05
0.0001037
0.0001389
0.000191
0.0002714
0.0004017
0.0006226
0.001011
0.001678
2.626e-07
4.058e-07
5.399e-07
7.42e-07
1.021e-06
1.382e-06
1.835e-06
2.389e-06
3.059e-06
3.862e-06
4.82e-06
5.962e-06
7.324e-06
8.954e-06
1.091e-05
1.329e-05
1.618e-05
1.973e-05
2.415e-05
2.971e-05
3.678e-05
4.592e-05
5.794e-05
7.404e-05
9.61e-05
0.0001271
0.0001723
0.0002405
0.0003485
0.0005269
0.0008333
0.001349
1.327e-07
2.339e-07
3.67e-07
5.731e-07
8.579e-07
1.229e-06
1.694e-06
2.266e-06
2.96e-06
3.797e-06
4.801e-06
6.005e-06
7.454e-06
9.202e-06
1.133e-05
1.392e-05
1.713e-05
2.113e-05
2.618e-05
3.264e-05
4.103e-05
5.212e-05
6.706e-05
8.764e-05
0.0001167
0.0001593
0.0002241
0.0003284
0.0005075
0.0008393
0.0015
0.002752
1.328e-07
2.338e-07
3.664e-07
5.717e-07
8.554e-07
1.224e-06
1.688e-06
2.257e-06
2.947e-06
3.778e-06
4.775e-06
5.97e-06
7.405e-06
9.136e-06
1.124e-05
1.38e-05
1.696e-05
2.09e-05
2.585e-05
3.218e-05
4.038e-05
5.119e-05
6.57e-05
8.563e-05
0.0001137
0.0001546
0.0002167
0.0003164
0.0004873
0.0008045
0.001441
0.002671
1.328e-07
2.335e-07
3.652e-07
5.691e-07
8.506e-07
1.217e-06
1.676e-06
2.239e-06
2.922e-06
3.743e-06
4.725e-06
5.902e-06
7.312e-06
9.008e-06
1.106e-05
1.356e-05
1.663e-05
2.044e-05
2.523e-05
3.13e-05
3.914e-05
4.941e-05
6.311e-05
8.179e-05
0.0001079
0.0001456
0.0002023
0.0002923
0.0004453
0.0007272
0.001294
0.002414
1.329e-07
2.33e-07
3.635e-07
5.652e-07
8.436e-07
1.205e-06
1.658e-06
2.214e-06
2.885e-06
3.691e-06
4.654e-06
5.803e-06
7.176e-06
8.824e-06
1.081e-05
1.322e-05
1.616e-05
1.98e-05
2.433e-05
3.005e-05
3.738e-05
4.689e-05
5.947e-05
7.642e-05
9.982e-05
0.0001331
0.0001822
0.0002585
0.000385
0.0006118
0.001056
0.001923
4.805e-08
1.201e-07
2.487e-07
4.507e-07
7.299e-07
1.093e-06
1.55e-06
2.111e-06
2.793e-06
3.614e-06
4.601e-06
5.786e-06
7.212e-06
8.936e-06
1.103e-05
1.36e-05
1.677e-05
2.074e-05
2.575e-05
3.217e-05
4.052e-05
5.155e-05
6.639e-05
8.674e-05
0.0001153
0.0001563
0.0002173
0.0003127
0.0004714
0.0007624
0.001445
0.003244
4.819e-08
1.201e-07
2.482e-07
4.494e-07
7.275e-07
1.089e-06
1.544e-06
2.102e-06
2.78e-06
3.596e-06
4.576e-06
5.751e-06
7.165e-06
8.871e-06
1.094e-05
1.348e-05
1.66e-05
2.05e-05
2.542e-05
3.171e-05
3.987e-05
5.062e-05
6.504e-05
8.477e-05
0.0001123
0.0001519
0.0002105
0.0003019
0.0004535
0.0007313
0.001386
0.003145
4.835e-08
1.199e-07
2.472e-07
4.47e-07
7.229e-07
1.082e-06
1.532e-06
2.085e-06
2.755e-06
3.561e-06
4.527e-06
5.684e-06
7.072e-06
8.744e-06
1.077e-05
1.324e-05
1.628e-05
2.005e-05
2.48e-05
3.084e-05
3.863e-05
4.885e-05
6.247e-05
8.098e-05
0.0001067
0.0001433
0.0001971
0.0002804
0.0004176
0.0006662
0.001242
0.002815
4.856e-08
1.197e-07
2.456e-07
4.433e-07
7.162e-07
1.071e-06
1.515e-06
2.06e-06
2.719e-06
3.51e-06
4.456e-06
5.586e-06
6.939e-06
8.562e-06
1.052e-05
1.29e-05
1.581e-05
1.941e-05
2.391e-05
2.959e-05
3.688e-05
4.634e-05
5.886e-05
7.568e-05
9.878e-05
0.0001313
0.0001785
0.0002503
0.0003669
0.000574
0.001026
0.002183
8.213e-09
5.252e-08
1.484e-07
2.999e-07
5.096e-07
7.827e-07
1.126e-06
1.548e-06
2.06e-06
2.677e-06
3.417e-06
4.307e-06
5.376e-06
6.669e-06
8.239e-06
1.016e-05
1.254e-05
1.55e-05
1.923e-05
2.401e-05
3.019e-05
3.831e-05
4.912e-05
6.366e-05
8.341e-05
0.0001102
0.0001457
0.0001912
0.0002431
0.0002767
0.0004682
0.003379
8.316e-09
5.252e-08
1.48e-07
2.989e-07
5.079e-07
7.798e-07
1.121e-06
1.541e-06
2.05e-06
2.663e-06
3.398e-06
4.281e-06
5.341e-06
6.62e-06
8.172e-06
1.007e-05
1.241e-05
1.532e-05
1.899e-05
2.367e-05
2.972e-05
3.763e-05
4.815e-05
6.227e-05
8.141e-05
0.0001073
0.0001419
0.0001864
0.0002374
0.0002717
0.0004545
0.003271
8.471e-09
5.244e-08
1.472e-07
2.971e-07
5.045e-07
7.741e-07
1.113e-06
1.528e-06
2.031e-06
2.637e-06
3.362e-06
4.23e-06
5.271e-06
6.525e-06
8.043e-06
9.892e-06
1.217e-05
1.499e-05
1.853e-05
2.302e-05
2.88e-05
3.634e-05
4.629e-05
5.96e-05
7.756e-05
0.0001018
0.0001343
0.0001765
0.0002263
0.0002638
0.000417
0.002844
8.674e-09
5.23e-08
1.461e-07
2.944e-07
4.995e-07
7.658e-07
1.1e-06
1.509e-06
2.004e-06
2.598e-06
3.309e-06
4.157e-06
5.171e-06
6.388e-06
7.856e-06
9.637e-06
1.182e-05
1.451e-05
1.786e-05
2.21e-05
2.751e-05
3.45e-05
4.367e-05
5.583e-05
7.213e-05
9.408e-05
0.0001235
0.0001624
0.0002112
0.0002596
0.0003809
0.001866
1.171e-05
1.245e-05
1.327e-05
1.418e-05
1.518e-05
1.627e-05
1.747e-05
1.877e-05
2.017e-05
2.169e-05
2.331e-05
2.505e-05
2.689e-05
2.882e-05
3.084e-05
3.293e-05
3.507e-05
3.723e-05
3.939e-05
4.151e-05
4.355e-05
1.1e-05
1.166e-05
1.239e-05
1.319e-05
1.408e-05
1.506e-05
1.613e-05
1.73e-05
1.856e-05
1.993e-05
2.14e-05
2.297e-05
2.464e-05
2.641e-05
2.827e-05
3.02e-05
3.22e-05
3.424e-05
3.629e-05
3.834e-05
4.035e-05
4.228e-05
1.038e-05
1.096e-05
1.16e-05
1.231e-05
1.31e-05
1.398e-05
1.493e-05
1.597e-05
1.711e-05
1.834e-05
1.966e-05
2.107e-05
2.259e-05
2.419e-05
2.588e-05
2.765e-05
2.949e-05
3.139e-05
3.331e-05
3.525e-05
3.718e-05
3.906e-05
4.087e-05
9.845e-06
1.034e-05
1.09e-05
1.153e-05
1.223e-05
1.301e-05
1.386e-05
1.479e-05
1.58e-05
1.69e-05
1.809e-05
1.936e-05
2.073e-05
2.217e-05
2.371e-05
2.532e-05
2.7e-05
2.874e-05
3.052e-05
3.233e-05
3.415e-05
3.595e-05
3.771e-05
3.939e-05
9.808e-06
1.03e-05
1.085e-05
1.147e-05
1.215e-05
1.291e-05
1.374e-05
1.464e-05
1.563e-05
1.669e-05
1.783e-05
1.906e-05
2.037e-05
2.175e-05
2.321e-05
2.474e-05
2.632e-05
2.796e-05
2.964e-05
3.133e-05
3.303e-05
3.47e-05
3.633e-05
3.788e-05
9.349e-06
9.77e-06
1.025e-05
1.079e-05
1.14e-05
1.207e-05
1.281e-05
1.361e-05
1.449e-05
1.545e-05
1.648e-05
1.758e-05
1.875e-05
2e-05
2.132e-05
2.271e-05
2.416e-05
2.565e-05
2.719e-05
2.876e-05
3.034e-05
3.191e-05
3.346e-05
3.496e-05
3.639e-05
8.961e-06
9.319e-06
9.733e-06
1.02e-05
1.074e-05
1.133e-05
1.199e-05
1.271e-05
1.349e-05
1.435e-05
1.527e-05
1.627e-05
1.733e-05
1.846e-05
1.965e-05
2.091e-05
2.223e-05
2.359e-05
2.5e-05
2.645e-05
2.791e-05
2.938e-05
3.084e-05
3.227e-05
3.366e-05
3.497e-05
8.637e-06
8.936e-06
9.289e-06
9.697e-06
1.016e-05
1.068e-05
1.127e-05
1.191e-05
1.261e-05
1.338e-05
1.421e-05
1.511e-05
1.607e-05
1.709e-05
1.818e-05
1.932e-05
2.052e-05
2.177e-05
2.307e-05
2.44e-05
2.575e-05
2.712e-05
2.849e-05
2.984e-05
3.117e-05
3.244e-05
3.365e-05
8.374e-06
8.617e-06
8.912e-06
9.261e-06
9.663e-06
1.012e-05
1.063e-05
1.12e-05
1.183e-05
1.252e-05
1.327e-05
1.408e-05
1.495e-05
1.588e-05
1.687e-05
1.792e-05
1.902e-05
2.017e-05
2.136e-05
2.259e-05
2.384e-05
2.512e-05
2.64e-05
2.768e-05
2.894e-05
3.017e-05
3.135e-05
3.246e-05
8.165e-06
8.356e-06
8.597e-06
8.889e-06
9.233e-06
9.629e-06
1.008e-05
1.059e-05
1.115e-05
1.177e-05
1.244e-05
1.318e-05
1.397e-05
1.481e-05
1.572e-05
1.668e-05
1.769e-05
1.875e-05
1.985e-05
2.099e-05
2.216e-05
2.335e-05
2.456e-05
2.577e-05
2.697e-05
2.815e-05
2.93e-05
3.039e-05
3.142e-05
7.985e-06
8.138e-06
8.327e-06
8.565e-06
8.854e-06
9.194e-06
9.586e-06
1.003e-05
1.053e-05
1.108e-05
1.169e-05
1.235e-05
1.307e-05
1.385e-05
1.467e-05
1.555e-05
1.649e-05
1.747e-05
1.849e-05
1.955e-05
2.065e-05
2.177e-05
2.291e-05
2.406e-05
2.521e-05
2.634e-05
2.746e-05
2.853e-05
2.956e-05
3.052e-05
7.645e-06
7.892e-06
8.043e-06
8.229e-06
8.463e-06
8.746e-06
9.08e-06
9.464e-06
9.901e-06
1.039e-05
1.093e-05
1.152e-05
1.217e-05
1.287e-05
1.363e-05
1.443e-05
1.529e-05
1.619e-05
1.714e-05
1.812e-05
1.915e-05
2.02e-05
2.127e-05
2.236e-05
2.346e-05
2.455e-05
2.562e-05
2.667e-05
2.769e-05
2.865e-05
2.955e-05
5.439e-06
7.22e-06
7.446e-06
7.586e-06
7.761e-06
7.981e-06
8.247e-06
8.56e-06
8.92e-06
9.329e-06
9.786e-06
1.029e-05
1.085e-05
1.145e-05
1.211e-05
1.281e-05
1.356e-05
1.436e-05
1.52e-05
1.608e-05
1.699e-05
1.794e-05
1.891e-05
1.99e-05
2.09e-05
2.191e-05
2.291e-05
2.389e-05
2.485e-05
2.577e-05
2.665e-05
2.747e-05
4.205e-06
5.41e-06
5.556e-06
5.658e-06
5.787e-06
5.95e-06
6.148e-06
6.38e-06
6.647e-06
6.95e-06
7.289e-06
7.665e-06
8.076e-06
8.524e-06
9.009e-06
9.528e-06
1.008e-05
1.067e-05
1.129e-05
1.194e-05
1.261e-05
1.331e-05
1.402e-05
1.475e-05
1.549e-05
1.622e-05
1.696e-05
1.768e-05
1.838e-05
1.905e-05
1.969e-05
2.029e-05
1.195e-06
1.387e-06
1.41e-06
1.435e-06
1.467e-06
1.508e-06
1.558e-06
1.616e-06
1.684e-06
1.76e-06
1.845e-06
1.94e-06
2.043e-06
2.156e-06
2.278e-06
2.408e-06
2.548e-06
2.695e-06
2.851e-06
3.013e-06
3.182e-06
3.357e-06
3.536e-06
3.719e-06
3.903e-06
4.088e-06
4.271e-06
4.452e-06
4.628e-06
4.796e-06
4.957e-06
5.107e-06
5.462e-06
7.328e-06
7.586e-06
7.759e-06
7.978e-06
8.255e-06
8.594e-06
8.997e-06
9.468e-06
1.001e-05
1.063e-05
1.132e-05
1.21e-05
1.297e-05
1.393e-05
1.5e-05
1.618e-05
1.746e-05
1.887e-05
2.041e-05
2.207e-05
2.387e-05
2.58e-05
2.786e-05
3.004e-05
3.234e-05
3.474e-05
3.721e-05
3.972e-05
4.224e-05
4.473e-05
4.714e-05
5.456e-06
7.319e-06
7.575e-06
7.747e-06
7.964e-06
8.238e-06
8.574e-06
8.972e-06
9.437e-06
9.971e-06
1.058e-05
1.126e-05
1.203e-05
1.288e-05
1.383e-05
1.487e-05
1.601e-05
1.727e-05
1.863e-05
2.012e-05
2.173e-05